 Entering Gaussian System, Link 0=g09
 Initial command:
 /usr/local/research/Gaussian09/g09-revD.01/g09/l1.exe "/scratch/lein/Gau-1640.inp" -scrdir="/scratch/lein/"
 Entering Link 1 = /usr/local/research/Gaussian09/g09-revD.01/g09/l1.exe PID=      1643.
  
 Copyright (c) 1988,1990,1992,1993,1995,1998,2003,2009,2013,
            Gaussian, Inc.  All Rights Reserved.
  
 This is part of the Gaussian(R) 09 program.  It is based on
 the Gaussian(R) 03 system (copyright 2003, Gaussian, Inc.),
 the Gaussian(R) 98 system (copyright 1998, Gaussian, Inc.),
 the Gaussian(R) 94 system (copyright 1995, Gaussian, Inc.),
 the Gaussian 92(TM) system (copyright 1992, Gaussian, Inc.),
 the Gaussian 90(TM) system (copyright 1990, Gaussian, Inc.),
 the Gaussian 88(TM) system (copyright 1988, Gaussian, Inc.),
 the Gaussian 86(TM) system (copyright 1986, Carnegie Mellon
 University), and the Gaussian 82(TM) system (copyright 1983,
 Carnegie Mellon University). Gaussian is a federally registered
 trademark of Gaussian, Inc.
  
 This software contains proprietary and confidential information,
 including trade secrets, belonging to Gaussian, Inc.
  
 This software is provided under written license and may be
 used, copied, transmitted, or stored only in accord with that
 written license.
  
 The following legend is applicable only to US Government
 contracts under FAR:
  
                    RESTRICTED RIGHTS LEGEND
  
 Use, reproduction and disclosure by the US Government is
 subject to restrictions as set forth in subparagraphs (a)
 and (c) of the Commercial Computer Software - Restricted
 Rights clause in FAR 52.227-19.
  
 Gaussian, Inc.
 340 Quinnipiac St., Bldg. 40, Wallingford CT 06492
  
  
 ---------------------------------------------------------------
 Warning -- This program may not be used in any manner that
 competes with the business of Gaussian, Inc. or will provide
 assistance to any competitor of Gaussian, Inc.  The licensee
 of this program is prohibited from giving any competitor of
 Gaussian, Inc. access to this program.  By using this program,
 the user acknowledges that Gaussian, Inc. is engaged in the
 business of creating and licensing software in the field of
 computational chemistry and represents and warrants to the
 licensee that it is not a competitor of Gaussian, Inc. and that
 it will not use this program in any manner prohibited above.
 ---------------------------------------------------------------
  

 Cite this work as:
 Gaussian 09, Revision D.01,
 M. J. Frisch, G. W. Trucks, H. B. Schlegel, G. E. Scuseria, 
 M. A. Robb, J. R. Cheeseman, G. Scalmani, V. Barone, B. Mennucci, 
 G. A. Petersson, H. Nakatsuji, M. Caricato, X. Li, H. P. Hratchian, 
 A. F. Izmaylov, J. Bloino, G. Zheng, J. L. Sonnenberg, M. Hada, 
 M. Ehara, K. Toyota, R. Fukuda, J. Hasegawa, M. Ishida, T. Nakajima, 
 Y. Honda, O. Kitao, H. Nakai, T. Vreven, J. A. Montgomery, Jr., 
 J. E. Peralta, F. Ogliaro, M. Bearpark, J. J. Heyd, E. Brothers, 
 K. N. Kudin, V. N. Staroverov, T. Keith, R. Kobayashi, J. Normand, 
 K. Raghavachari, A. Rendell, J. C. Burant, S. S. Iyengar, J. Tomasi, 
 M. Cossi, N. Rega, J. M. Millam, M. Klene, J. E. Knox, J. B. Cross, 
 V. Bakken, C. Adamo, J. Jaramillo, R. Gomperts, R. E. Stratmann, 
 O. Yazyev, A. J. Austin, R. Cammi, C. Pomelli, J. W. Ochterski, 
 R. L. Martin, K. Morokuma, V. G. Zakrzewski, G. A. Voth, 
 P. Salvador, J. J. Dannenberg, S. Dapprich, A. D. Daniels, 
 O. Farkas, J. B. Foresman, J. V. Ortiz, J. Cioslowski, 
 and D. J. Fox, Gaussian, Inc., Wallingford CT, 2013.
 
 ******************************************
 Gaussian 09:  EM64L-G09RevD.01 24-Apr-2013
                11-Sep-2015 
 ******************************************
 %chk=1-ttt.chk
 ----------------------------------
 #p opt freq pbepbe def2svp scf=xqc
 ----------------------------------
 1/14=-1,18=20,19=15,26=3,38=1/1,3;
 2/9=110,12=2,17=6,18=5,40=1/2;
 3/5=43,7=101,11=2,16=1,25=1,30=1,71=1,74=1009/1,2,3;
 4//1;
 5/5=2,8=3,13=1,38=5/2,8;
 6/7=2,8=2,9=2,10=2,28=1/1;
 7//1,2,3,16;
 1/14=-1,18=20,19=15,26=3/3(2);
 2/9=110/2;
 99//99;
 2/9=110/2;
 3/5=43,7=101,11=2,16=1,25=1,30=1,71=1,74=1009/1,2,3;
 4/5=5,16=3,69=1/1;
 5/5=2,8=3,13=1,38=5/2,8;
 7//1,2,3,16;
 1/14=-1,18=20,19=15,26=3/3(-5);
 2/9=110/2;
 6/7=2,8=2,9=2,10=2,19=2,28=1/1;
 99/9=1/99;
 Leave Link    1 at Fri Sep 11 12:56:00 2015, MaxMem=           0 cpu:         0.0
 (Enter /usr/local/research/Gaussian09/g09-revD.01/g09/l101.exe)
 ------------------------
 -- Glycine conformers --
 ------------------------
 Symbolic Z-matrix:
 Charge =  0 Multiplicity = 1
 N                     0.0438   -1.92595   0. 
 C                    -0.79717  -0.74596   0. 
 H                     0.46104  -1.95739   0.90907 
 H                     0.46104  -1.95739  -0.90907 
 C                     0.05661   0.51399   0. 
 H                    -1.42307  -0.74417  -0.90115 
 H                    -1.42307  -0.74417   0.90115 
 O                     1.31175   0.4235    0. 
 O                    -0.5675    1.8006    0. 
 H                     0.10683   2.48386   0. 
 
 NAtoms=     10 NQM=       10 NQMF=       0 NMMI=      0 NMMIF=      0
                NMic=       0 NMicF=      0.
                    Isotopes and Nuclear Properties:
 (Nuclear quadrupole moments (NQMom) in fm**2, nuclear magnetic moments (NMagM)
  in nuclear magnetons)

  Atom         1           2           3           4           5           6           7           8           9          10
 IAtWgt=          14          12           1           1          12           1           1          16          16           1
 AtmWgt=  14.0030740  12.0000000   1.0078250   1.0078250  12.0000000   1.0078250   1.0078250  15.9949146  15.9949146   1.0078250
 NucSpn=           2           0           1           1           0           1           1           0           0           1
 AtZEff=   0.0000000   0.0000000   0.0000000   0.0000000   0.0000000   0.0000000   0.0000000   0.0000000   0.0000000   0.0000000
 NQMom=    2.0440000   0.0000000   0.0000000   0.0000000   0.0000000   0.0000000   0.0000000   0.0000000   0.0000000   0.0000000
 NMagM=    0.4037610   0.0000000   2.7928460   2.7928460   0.0000000   2.7928460   2.7928460   0.0000000   0.0000000   2.7928460
 AtZNuc=   7.0000000   6.0000000   1.0000000   1.0000000   6.0000000   1.0000000   1.0000000   8.0000000   8.0000000   1.0000000
 Leave Link  101 at Fri Sep 11 12:56:01 2015, MaxMem=    33554432 cpu:         0.2
 (Enter /usr/local/research/Gaussian09/g09-revD.01/g09/l103.exe)

 GradGradGradGradGradGradGradGradGradGradGradGradGradGradGradGradGradGrad
 Berny optimization.
 Initialization pass.
                           ----------------------------
                           !    Initial Parameters    !
                           ! (Angstroms and Degrees)  !
 --------------------------                            --------------------------
 ! Name  Definition              Value          Derivative Info.                !
 --------------------------------------------------------------------------------
 ! R1    R(1,2)                  1.449          estimate D2E/DX2                !
 ! R2    R(1,3)                  1.0007         estimate D2E/DX2                !
 ! R3    R(1,4)                  1.0007         estimate D2E/DX2                !
 ! R4    R(2,5)                  1.522          estimate D2E/DX2                !
 ! R5    R(2,6)                  1.0972         estimate D2E/DX2                !
 ! R6    R(2,7)                  1.0972         estimate D2E/DX2                !
 ! R7    R(5,8)                  1.2584         estimate D2E/DX2                !
 ! R8    R(5,9)                  1.43           estimate D2E/DX2                !
 ! R9    R(9,10)                 0.96           estimate D2E/DX2                !
 ! A1    A(2,1,3)              105.5191         estimate D2E/DX2                !
 ! A2    A(2,1,4)              105.5191         estimate D2E/DX2                !
 ! A3    A(3,1,4)              130.5691         estimate D2E/DX2                !
 ! A4    A(1,2,5)              110.4            estimate D2E/DX2                !
 ! A5    A(1,2,6)              109.4154         estimate D2E/DX2                !
 ! A6    A(1,2,7)              109.4154         estimate D2E/DX2                !
 ! A7    A(5,2,6)              108.5817         estimate D2E/DX2                !
 ! A8    A(5,2,7)              108.5817         estimate D2E/DX2                !
 ! A9    A(6,2,7)              110.435          estimate D2E/DX2                !
 ! A10   A(2,5,8)              119.9994         estimate D2E/DX2                !
 ! A11   A(2,5,9)              119.9999         estimate D2E/DX2                !
 ! A12   A(8,5,9)              120.0008         estimate D2E/DX2                !
 ! A13   A(5,9,10)             109.4997         estimate D2E/DX2                !
 ! D1    D(3,1,2,5)             70.5217         estimate D2E/DX2                !
 ! D2    D(3,1,2,6)           -170.0354         estimate D2E/DX2                !
 ! D3    D(3,1,2,7)            -48.9213         estimate D2E/DX2                !
 ! D4    D(4,1,2,5)            -70.5217         estimate D2E/DX2                !
 ! D5    D(4,1,2,6)             48.9213         estimate D2E/DX2                !
 ! D6    D(4,1,2,7)            170.0354         estimate D2E/DX2                !
 ! D7    D(1,2,5,8)              0.0            estimate D2E/DX2                !
 ! D8    D(1,2,5,9)            180.0            estimate D2E/DX2                !
 ! D9    D(6,2,5,8)           -119.9463         estimate D2E/DX2                !
 ! D10   D(6,2,5,9)             60.0537         estimate D2E/DX2                !
 ! D11   D(7,2,5,8)            119.9463         estimate D2E/DX2                !
 ! D12   D(7,2,5,9)            -60.0537         estimate D2E/DX2                !
 ! D13   D(2,5,9,10)           180.0            estimate D2E/DX2                !
 ! D14   D(8,5,9,10)             0.0            estimate D2E/DX2                !
 --------------------------------------------------------------------------------
 Trust Radius=3.00D-01 FncErr=1.00D-07 GrdErr=1.00D-06
 Number of steps in this run=     46 maximum allowed number of steps=    100.
 GradGradGradGradGradGradGradGradGradGradGradGradGradGradGradGradGradGrad

 Leave Link  103 at Fri Sep 11 12:56:01 2015, MaxMem=    33554432 cpu:         0.0
 (Enter /usr/local/research/Gaussian09/g09-revD.01/g09/l202.exe)
                          Input orientation:                          
 ---------------------------------------------------------------------
 Center     Atomic      Atomic             Coordinates (Angstroms)
 Number     Number       Type             X           Y           Z
 ---------------------------------------------------------------------
      1          7           0        0.043799   -1.925951    0.000000
      2          6           0       -0.797168   -0.745963    0.000000
      3          1           0        0.461039   -1.957389    0.909070
      4          1           0        0.461039   -1.957389   -0.909070
      5          6           0        0.056614    0.513985    0.000000
      6          1           0       -1.423071   -0.744169   -0.901147
      7          1           0       -1.423071   -0.744169    0.901147
      8          8           0        1.311748    0.423499    0.000000
      9          8           0       -0.567501    1.800598    0.000000
     10          1           0        0.106829    2.483861    0.000000
 ---------------------------------------------------------------------
                    Distance matrix (angstroms):
                    1          2          3          4          5
     1  N    0.000000
     2  C    1.448999   0.000000
     3  H    1.000743   1.969022   0.000000
     4  H    1.000743   1.969022   1.818140   0.000000
     5  C    2.439970   1.521976   2.664143   2.664143   0.000000
     6  H    2.088153   1.097189   2.880739   2.240945   2.141141
     7  H    2.088153   1.097189   2.240945   2.880739   2.141141
     8  O    2.669758   2.411465   2.686772   2.686772   1.258392
     9  O    3.776355   2.556896   4.000847   4.000847   1.429997
    10  H    4.410262   3.353948   4.547150   4.547150   1.970516
                    6          7          8          9         10
     6  H    0.000000
     7  H    1.802294   0.000000
     8  O    3.107209   3.107209   0.000000
     9  O    2.831943   2.831943   2.329803   0.000000
    10  H    3.684133   3.684133   2.386822   0.959984   0.000000
 Stoichiometry    C2H5NO2
 Framework group  CS[SG(C2HNO2),X(H4)]
 Deg. of freedom    15
 Full point group                 CS      NOp   2
 Largest Abelian subgroup         CS      NOp   2
 Largest concise Abelian subgroup CS      NOp   2
                         Standard orientation:                         
 ---------------------------------------------------------------------
 Center     Atomic      Atomic             Coordinates (Angstroms)
 Number     Number       Type             X           Y           Z
 ---------------------------------------------------------------------
      1          7           0        0.254397   -1.909578    0.000000
      2          6           0       -0.710705   -0.828756    0.000000
      3          1           0        0.672570   -1.895146    0.909070
      4          1           0        0.672570   -1.895146   -0.909070
      5          6           0        0.000000    0.517094    0.000000
      6          1           0       -1.333041   -0.895499   -0.901147
      7          1           0       -1.333041   -0.895499    0.901147
      8          8           0        1.257496    0.564569    0.000000
      9          8           0       -0.761227    1.727641    0.000000
     10          1           0       -0.165757    2.480625    0.000000
 ---------------------------------------------------------------------
 Rotational constants (GHZ):     10.4978721      3.7499528      2.8664986
 Leave Link  202 at Fri Sep 11 12:56:01 2015, MaxMem=    33554432 cpu:         0.0
 (Enter /usr/local/research/Gaussian09/g09-revD.01/g09/l301.exe)
 Standard basis: def2SVP (5D, 7F)
 Ernie: Thresh=  0.10000D-02 Tol=  0.10000D-05 Strict=F.
 There are    69 symmetry adapted cartesian basis functions of A'  symmetry.
 There are    31 symmetry adapted cartesian basis functions of A"  symmetry.
 There are    64 symmetry adapted basis functions of A'  symmetry.
 There are    31 symmetry adapted basis functions of A"  symmetry.
    95 basis functions,   160 primitive gaussians,   100 cartesian basis functions
    20 alpha electrons       20 beta electrons
       nuclear repulsion energy       176.6835887482 Hartrees.
 IExCor= 1009 DFT=T Ex=PBE Corr=PBE ExCW=0 ScaHFX=  0.000000
 ScaDFX=  1.000000  1.000000  1.000000  1.000000 ScalE2=  1.000000  1.000000
 IRadAn=      0 IRanWt=     -1 IRanGd=            0 ICorTp=0 IEmpDi=  4
 NAtoms=   10 NActive=   10 NUniq=    8 SFac= 1.56D+00 NAtFMM=   60 NAOKFM=F Big=F
 Integral buffers will be    131072 words long.
 Raffenetti 2 integral format.
 Two-electron integral symmetry is turned on.
 Leave Link  301 at Fri Sep 11 12:56:01 2015, MaxMem=    33554432 cpu:         0.1
 (Enter /usr/local/research/Gaussian09/g09-revD.01/g09/l302.exe)
 NPDir=0 NMtPBC=     1 NCelOv=     1 NCel=       1 NClECP=     1 NCelD=      1
         NCelK=      1 NCelE2=     1 NClLst=     1 CellRange=     0.0.
 One-electron integrals computed using PRISM.
 One-electron integral symmetry used in STVInt
   2 Symmetry operations used in ECPInt.
 ECPInt:  NShTT=    1035 NPrTT=    3735 LenC2=    1033 LenP2D=    3186.
 LDataN:  DoStor=T MaxTD1= 4 Len=   56
 NBasis=    95 RedAO= T EigKep=  3.43D-03  NBF=    64    31
 NBsUse=    95 1.00D-06 EigRej= -1.00D+00 NBFU=    64    31
 Precomputing XC quadrature grid using
 IXCGrd= 4 IRadAn=           0 IRanWt=          -1 IRanGd=           0 AccXCQ= 0.00D+00.
 Generated NRdTot=       0 NPtTot=           0 NUsed=           0 NTot=          32
 NSgBfM=   100   100   100   100   100 MxSgAt=    10 MxSgA2=    10.
 Leave Link  302 at Fri Sep 11 12:56:02 2015, MaxMem=    33554432 cpu:         0.5
 (Enter /usr/local/research/Gaussian09/g09-revD.01/g09/l303.exe)
 DipDrv:  MaxL=1.
 Leave Link  303 at Fri Sep 11 12:56:02 2015, MaxMem=    33554432 cpu:         0.1
 (Enter /usr/local/research/Gaussian09/g09-revD.01/g09/l401.exe)
 ExpMin= 1.22D-01 ExpMax= 2.27D+03 ExpMxC= 3.41D+02 IAcc=1 IRadAn=         1 AccDes= 0.00D+00
 Harris functional with IExCor= 1009 and IRadAn=       1 diagonalized for initial guess.
 HarFok:  IExCor= 1009 AccDes= 0.00D+00 IRadAn=         1 IDoV= 1 UseB2=F ITyADJ=14
 ICtDFT=  3500011 ScaDFX=  1.000000  1.000000  1.000000  1.000000
 FoFCou: FMM=F IPFlag=           0 FMFlag=      100000 FMFlg1=           0
         NFxFlg=           0 DoJE=T BraDBF=F KetDBF=T FulRan=T
         wScrn=  0.000000 ICntrl=     500 IOpCl=  0 I1Cent=   200000004 NGrid=           0
         NMat0=    1 NMatS0=      1 NMatT0=    0 NMatD0=    1 NMtDS0=    0 NMtDT0=    0
 Petite list used in FoFCou.
 Harris En= -283.954925737035    
 JPrj=0 DoOrth=F DoCkMO=F.
 Initial guess orbital symmetries:
       Occupied  (A') (A') (A') (A') (A') (A') (A') (A') (A') (A')
                 (A") (A') (A') (A') (A") (A') (A") (A") (A') (A')
       Virtual   (A") (A') (A') (A") (A') (A') (A') (A") (A') (A')
                 (A') (A') (A") (A') (A') (A") (A') (A') (A') (A")
                 (A') (A") (A') (A') (A") (A') (A') (A") (A') (A')
                 (A") (A') (A") (A') (A') (A") (A') (A") (A') (A")
                 (A") (A") (A') (A') (A') (A') (A") (A') (A") (A')
                 (A') (A') (A") (A') (A') (A") (A') (A') (A") (A')
                 (A") (A') (A') (A') (A") (A") (A') (A") (A") (A')
                 (A") (A') (A') (A') (A')
 The electronic state of the initial guess is 1-A'.
 Leave Link  401 at Fri Sep 11 12:56:03 2015, MaxMem=    33554432 cpu:         0.6
 (Enter /usr/local/research/Gaussian09/g09-revD.01/g09/l502.exe)
 Closed shell SCF:
 Using DIIS extrapolation, IDIIS=  1040.
 Integral symmetry usage will be decided dynamically.
 Keep J ints in memory in symmetry-blocked form, NReq=15735152.
 IVT=       37446 IEndB=       37446 NGot=    33554432 MDV=    28218456
 LenX=    28218456 LenY=    28208015
 Requested convergence on RMS density matrix=1.00D-08 within  64 cycles.
 Requested convergence on MAX density matrix=1.00D-06.
 Requested convergence on             energy=1.00D-06.
 No special actions if energy rises.
 FoFCou: FMM=F IPFlag=           0 FMFlag=           0 FMFlg1=           0
         NFxFlg=           0 DoJE=F BraDBF=F KetDBF=F FulRan=T
         wScrn=  0.000000 ICntrl=     600 IOpCl=  0 I1Cent=           0 NGrid=           0
         NMat0=    1 NMatS0=   4560 NMatT0=    0 NMatD0=    1 NMtDS0=    0 NMtDT0=    0
 Petite list used in FoFCou.
 Integral accuracy reduced to 1.0D-05 until final iterations.

 Cycle   1  Pass 0  IDiag  1:
 E= -283.726983179093    
 DIIS: error= 3.65D-02 at cycle   1 NSaved=   1.
 NSaved= 1 IEnMin= 1 EnMin= -283.726983179093     IErMin= 1 ErrMin= 3.65D-02
 ErrMax= 3.65D-02  0.00D+00 EMaxC= 1.00D-01 BMatC= 1.77D-01 BMatP= 1.77D-01
 IDIUse=3 WtCom= 6.35D-01 WtEn= 3.65D-01
 Coeff-Com:  0.100D+01
 Coeff-En:   0.100D+01
 Coeff:      0.100D+01
 Gap=     0.028 Goal=   None    Shift=    0.000
 GapD=    0.028 DampG=0.250 DampE=0.500 DampFc=0.2500 IDamp=-1.
 Damping current iteration by 2.50D-01
 RMSDP=1.48D-02 MaxDP=3.46D-01              OVMax= 3.20D-01

 Cycle   2  Pass 0  IDiag  1:
 E= -283.772143495102     Delta-E=       -0.045160316009 Rises=F Damp=T
 DIIS: error= 1.47D-02 at cycle   2 NSaved=   2.
 NSaved= 2 IEnMin= 2 EnMin= -283.772143495102     IErMin= 2 ErrMin= 1.47D-02
 ErrMax= 1.47D-02  0.00D+00 EMaxC= 1.00D-01 BMatC= 1.77D-02 BMatP= 1.77D-01
 IDIUse=3 WtCom= 8.53D-01 WtEn= 1.47D-01
 Coeff-Com: -0.175D+00 0.117D+01
 Coeff-En:   0.180D+00 0.820D+00
 Coeff:     -0.123D+00 0.112D+01
 Gap=     0.088 Goal=   None    Shift=    0.000
 RMSDP=3.60D-03 MaxDP=7.15D-02 DE=-4.52D-02 OVMax= 2.85D-01

 Cycle   3  Pass 0  IDiag  1:
 E= -283.809832944427     Delta-E=       -0.037689449325 Rises=F Damp=F
 DIIS: error= 3.08D-02 at cycle   3 NSaved=   3.
 NSaved= 3 IEnMin= 3 EnMin= -283.809832944427     IErMin= 2 ErrMin= 1.47D-02
 ErrMax= 3.08D-02  0.00D+00 EMaxC= 1.00D-01 BMatC= 7.93D-02 BMatP= 1.77D-02
 IDIUse=2 WtCom= 0.00D+00 WtEn= 1.00D+00
 EnCoef did     5 forward-backward iterations
 Coeff-En:   0.860D-01 0.218D+00 0.696D+00
 Coeff:      0.860D-01 0.218D+00 0.696D+00
 Gap=     0.148 Goal=   None    Shift=    0.000
 RMSDP=7.86D-03 MaxDP=1.86D-01 DE=-3.77D-02 OVMax= 3.80D-01

 Cycle   4  Pass 0  IDiag  1:
 E= -283.518567820365     Delta-E=        0.291265124062 Rises=F Damp=F
 DIIS: error= 7.48D-02 at cycle   4 NSaved=   4.
 NSaved= 4 IEnMin= 3 EnMin= -283.809832944427     IErMin= 2 ErrMin= 1.47D-02
 ErrMax= 7.48D-02  0.00D+00 EMaxC= 1.00D-01 BMatC= 4.37D-01 BMatP= 1.77D-02
 IDIUse=2 WtCom= 0.00D+00 WtEn= 1.00D+00
 EnCoef did     1 forward-backward iterations
 Coeff-En:   0.799D-01 0.000D+00 0.700D+00 0.220D+00
 Coeff:      0.799D-01 0.000D+00 0.700D+00 0.220D+00
 Gap=     0.157 Goal=   None    Shift=    0.000
 RMSDP=4.68D-03 MaxDP=1.10D-01 DE= 2.91D-01 OVMax= 2.13D-01

 Cycle   5  Pass 0  IDiag  1:
 E= -283.852949550799     Delta-E=       -0.334381730434 Rises=F Damp=F
 DIIS: error= 1.85D-02 at cycle   5 NSaved=   5.
 NSaved= 5 IEnMin= 5 EnMin= -283.852949550799     IErMin= 2 ErrMin= 1.47D-02
 ErrMax= 1.85D-02  0.00D+00 EMaxC= 1.00D-01 BMatC= 3.04D-02 BMatP= 1.77D-02
 IDIUse=2 WtCom= 0.00D+00 WtEn= 1.00D+00
 Coeff-En:   0.000D+00 0.000D+00 0.329D+00 0.000D+00 0.671D+00
 Coeff:      0.000D+00 0.000D+00 0.329D+00 0.000D+00 0.671D+00
 Gap=     0.139 Goal=   None    Shift=    0.000
 RMSDP=1.92D-03 MaxDP=4.77D-02 DE=-3.34D-01 OVMax= 9.27D-02

 Cycle   6  Pass 0  IDiag  1:
 E= -283.873539189094     Delta-E=       -0.020589638295 Rises=F Damp=F
 DIIS: error= 7.44D-03 at cycle   6 NSaved=   6.
 NSaved= 6 IEnMin= 6 EnMin= -283.873539189094     IErMin= 6 ErrMin= 7.44D-03
 ErrMax= 7.44D-03  0.00D+00 EMaxC= 1.00D-01 BMatC= 5.21D-03 BMatP= 1.77D-02
 IDIUse=3 WtCom= 9.26D-01 WtEn= 7.44D-02
 Coeff-Com: -0.699D-01 0.124D+00 0.199D+00-0.499D-01 0.534D+00 0.263D+00
 Coeff-En:   0.000D+00 0.000D+00 0.000D+00 0.000D+00 0.198D+00 0.802D+00
 Coeff:     -0.647D-01 0.115D+00 0.184D+00-0.461D-01 0.509D+00 0.303D+00
 Gap=     0.145 Goal=   None    Shift=    0.000
 RMSDP=6.19D-04 MaxDP=1.72D-02 DE=-2.06D-02 OVMax= 2.86D-02

 Cycle   7  Pass 0  IDiag  1:
 E= -283.877598063703     Delta-E=       -0.004058874609 Rises=F Damp=F
 DIIS: error= 7.60D-04 at cycle   7 NSaved=   7.
 NSaved= 7 IEnMin= 7 EnMin= -283.877598063703     IErMin= 7 ErrMin= 7.60D-04
 ErrMax= 7.60D-04  0.00D+00 EMaxC= 1.00D-01 BMatC= 1.00D-04 BMatP= 5.21D-03
 IDIUse=3 WtCom= 9.92D-01 WtEn= 7.60D-03
 Coeff-Com: -0.314D-01 0.526D-01 0.642D-01-0.256D-01 0.223D+00 0.193D+00
 Coeff-Com:  0.525D+00
 Coeff-En:   0.000D+00 0.000D+00 0.000D+00 0.000D+00 0.000D+00 0.000D+00
 Coeff-En:   0.100D+01
 Coeff:     -0.312D-01 0.522D-01 0.638D-01-0.254D-01 0.221D+00 0.191D+00
 Coeff:      0.528D+00
 Gap=     0.144 Goal=   None    Shift=    0.000
 RMSDP=9.93D-05 MaxDP=2.20D-03 DE=-4.06D-03 OVMax= 2.91D-03

 Cycle   8  Pass 0  IDiag  1:
 E= -283.877683048173     Delta-E=       -0.000084984471 Rises=F Damp=F
 DIIS: error= 1.72D-04 at cycle   8 NSaved=   8.
 NSaved= 8 IEnMin= 8 EnMin= -283.877683048173     IErMin= 8 ErrMin= 1.72D-04
 ErrMax= 1.72D-04  0.00D+00 EMaxC= 1.00D-01 BMatC= 4.53D-06 BMatP= 1.00D-04
 IDIUse=3 WtCom= 9.98D-01 WtEn= 1.72D-03
 Coeff-Com:  0.502D-03-0.263D-02-0.216D-02-0.126D-02 0.172D-01 0.619D-01
 Coeff-Com:  0.261D+00 0.665D+00
 Coeff-En:   0.000D+00 0.000D+00 0.000D+00 0.000D+00 0.000D+00 0.000D+00
 Coeff-En:   0.000D+00 0.100D+01
 Coeff:      0.501D-03-0.263D-02-0.216D-02-0.126D-02 0.172D-01 0.618D-01
 Coeff:      0.261D+00 0.666D+00
 Gap=     0.144 Goal=   None    Shift=    0.000
 RMSDP=1.96D-05 MaxDP=4.91D-04 DE=-8.50D-05 OVMax= 5.00D-04

 Cycle   9  Pass 0  IDiag  1:
 E= -283.877686981685     Delta-E=       -0.000003933512 Rises=F Damp=F
 DIIS: error= 2.20D-05 at cycle   9 NSaved=   9.
 NSaved= 9 IEnMin= 9 EnMin= -283.877686981685     IErMin= 9 ErrMin= 2.20D-05
 ErrMax= 2.20D-05  0.00D+00 EMaxC= 1.00D-01 BMatC= 5.67D-08 BMatP= 4.53D-06
 IDIUse=1 WtCom= 1.00D+00 WtEn= 0.00D+00
 Coeff-Com:  0.369D-03-0.109D-02-0.155D-02-0.257D-03 0.426D-02 0.216D-01
 Coeff-Com:  0.978D-01 0.266D+00 0.612D+00
 Coeff:      0.369D-03-0.109D-02-0.155D-02-0.257D-03 0.426D-02 0.216D-01
 Coeff:      0.978D-01 0.266D+00 0.612D+00
 Gap=     0.144 Goal=   None    Shift=    0.000
 RMSDP=4.07D-06 MaxDP=7.15D-05 DE=-3.93D-06 OVMax= 7.02D-05

 Initial convergence to 1.0D-05 achieved.  Increase integral accuracy.
 Cycle  10  Pass 1  IDiag  1:
 E= -283.877665003348     Delta-E=        0.000021978337 Rises=F Damp=F
 DIIS: error= 1.24D-05 at cycle   1 NSaved=   1.
 NSaved= 1 IEnMin= 1 EnMin= -283.877665003348     IErMin= 1 ErrMin= 1.24D-05
 ErrMax= 1.24D-05  0.00D+00 EMaxC= 1.00D-01 BMatC= 2.00D-08 BMatP= 2.00D-08
 IDIUse=1 WtCom= 1.00D+00 WtEn= 0.00D+00
 Coeff-Com:  0.100D+01
 Coeff:      0.100D+01
 Gap=     0.144 Goal=   None    Shift=    0.000
 RMSDP=4.07D-06 MaxDP=7.15D-05 DE= 2.20D-05 OVMax= 8.01D-05

 Cycle  11  Pass 1  IDiag  1:
 E= -283.877665010969     Delta-E=       -0.000000007621 Rises=F Damp=F
 DIIS: error= 1.39D-05 at cycle   2 NSaved=   2.
 NSaved= 2 IEnMin= 2 EnMin= -283.877665010969     IErMin= 1 ErrMin= 1.24D-05
 ErrMax= 1.39D-05  0.00D+00 EMaxC= 1.00D-01 BMatC= 2.27D-08 BMatP= 2.00D-08
 IDIUse=1 WtCom= 1.00D+00 WtEn= 0.00D+00
 Coeff-Com:  0.519D+00 0.481D+00
 Coeff:      0.519D+00 0.481D+00
 Gap=     0.144 Goal=   None    Shift=    0.000
 RMSDP=2.12D-06 MaxDP=3.92D-05 DE=-7.62D-09 OVMax= 5.04D-05

 Cycle  12  Pass 1  IDiag  1:
 E= -283.877665026225     Delta-E=       -0.000000015257 Rises=F Damp=F
 DIIS: error= 8.04D-06 at cycle   3 NSaved=   3.
 NSaved= 3 IEnMin= 3 EnMin= -283.877665026225     IErMin= 3 ErrMin= 8.04D-06
 ErrMax= 8.04D-06  0.00D+00 EMaxC= 1.00D-01 BMatC= 5.02D-09 BMatP= 2.00D-08
 IDIUse=1 WtCom= 1.00D+00 WtEn= 0.00D+00
 Coeff-Com:  0.134D+00 0.312D+00 0.554D+00
 Coeff:      0.134D+00 0.312D+00 0.554D+00
 Gap=     0.144 Goal=   None    Shift=    0.000
 RMSDP=1.01D-06 MaxDP=2.26D-05 DE=-1.53D-08 OVMax= 4.94D-05

 Cycle  13  Pass 1  IDiag  1:
 E= -283.877665027496     Delta-E=       -0.000000001271 Rises=F Damp=F
 DIIS: error= 6.27D-06 at cycle   4 NSaved=   4.
 NSaved= 4 IEnMin= 4 EnMin= -283.877665027496     IErMin= 4 ErrMin= 6.27D-06
 ErrMax= 6.27D-06  0.00D+00 EMaxC= 1.00D-01 BMatC= 3.38D-09 BMatP= 5.02D-09
 IDIUse=1 WtCom= 1.00D+00 WtEn= 0.00D+00
 Coeff-Com:  0.179D-01 0.170D+00 0.465D+00 0.348D+00
 Coeff:      0.179D-01 0.170D+00 0.465D+00 0.348D+00
 Gap=     0.144 Goal=   None    Shift=    0.000
 RMSDP=6.20D-07 MaxDP=1.62D-05 DE=-1.27D-09 OVMax= 2.80D-05

 Cycle  14  Pass 1  IDiag  1:
 E= -283.877665030153     Delta-E=       -0.000000002656 Rises=F Damp=F
 DIIS: error= 1.27D-06 at cycle   5 NSaved=   5.
 NSaved= 5 IEnMin= 5 EnMin= -283.877665030153     IErMin= 5 ErrMin= 1.27D-06
 ErrMax= 1.27D-06  0.00D+00 EMaxC= 1.00D-01 BMatC= 1.78D-10 BMatP= 3.38D-09
 IDIUse=1 WtCom= 1.00D+00 WtEn= 0.00D+00
 Coeff-Com: -0.322D-04 0.882D-01 0.271D+00 0.245D+00 0.396D+00
 Coeff:     -0.322D-04 0.882D-01 0.271D+00 0.245D+00 0.396D+00
 Gap=     0.144 Goal=   None    Shift=    0.000
 RMSDP=1.21D-07 MaxDP=3.49D-06 DE=-2.66D-09 OVMax= 4.15D-06

 Cycle  15  Pass 1  IDiag  1:
 E= -283.877665030302     Delta-E=       -0.000000000150 Rises=F Damp=F
 DIIS: error= 2.21D-07 at cycle   6 NSaved=   6.
 NSaved= 6 IEnMin= 6 EnMin= -283.877665030302     IErMin= 6 ErrMin= 2.21D-07
 ErrMax= 2.21D-07  0.00D+00 EMaxC= 1.00D-01 BMatC= 7.15D-12 BMatP= 1.78D-10
 IDIUse=1 WtCom= 1.00D+00 WtEn= 0.00D+00
 Coeff-Com: -0.101D-02 0.363D-01 0.115D+00 0.112D+00 0.226D+00 0.512D+00
 Coeff:     -0.101D-02 0.363D-01 0.115D+00 0.112D+00 0.226D+00 0.512D+00
 Gap=     0.144 Goal=   None    Shift=    0.000
 RMSDP=3.00D-08 MaxDP=5.38D-07 DE=-1.50D-10 OVMax= 8.43D-07

 Cycle  16  Pass 1  IDiag  1:
 E= -283.877665030308     Delta-E=       -0.000000000006 Rises=F Damp=F
 DIIS: error= 9.16D-08 at cycle   7 NSaved=   7.
 NSaved= 7 IEnMin= 7 EnMin= -283.877665030308     IErMin= 7 ErrMin= 9.16D-08
 ErrMax= 9.16D-08  0.00D+00 EMaxC= 1.00D-01 BMatC= 1.17D-12 BMatP= 7.15D-12
 IDIUse=1 WtCom= 1.00D+00 WtEn= 0.00D+00
 Coeff-Com: -0.661D-03 0.114D-01 0.379D-01 0.395D-01 0.958D-01 0.323D+00
 Coeff-Com:  0.493D+00
 Coeff:     -0.661D-03 0.114D-01 0.379D-01 0.395D-01 0.958D-01 0.323D+00
 Coeff:      0.493D+00
 Gap=     0.144 Goal=   None    Shift=    0.000
 RMSDP=1.08D-08 MaxDP=2.06D-07 DE=-5.91D-12 OVMax= 2.28D-07

 Cycle  17  Pass 1  IDiag  1:
 E= -283.877665030306     Delta-E=        0.000000000003 Rises=F Damp=F
 DIIS: error= 1.35D-08 at cycle   8 NSaved=   8.
 NSaved= 8 IEnMin= 7 EnMin= -283.877665030308     IErMin= 8 ErrMin= 1.35D-08
 ErrMax= 1.35D-08  0.00D+00 EMaxC= 1.00D-01 BMatC= 2.56D-14 BMatP= 1.17D-12
 IDIUse=1 WtCom= 1.00D+00 WtEn= 0.00D+00
 Coeff-Com: -0.218D-03 0.281D-02 0.970D-02 0.972D-02 0.289D-01 0.992D-01
 Coeff-Com:  0.198D+00 0.652D+00
 Coeff:     -0.218D-03 0.281D-02 0.970D-02 0.972D-02 0.289D-01 0.992D-01
 Coeff:      0.198D+00 0.652D+00
 Gap=     0.144 Goal=   None    Shift=    0.000
 RMSDP=2.27D-09 MaxDP=4.61D-08 DE= 2.73D-12 OVMax= 4.84D-08

 SCF Done:  E(RPBE-PBE) =  -283.877665030     A.U. after   17 cycles
            NFock= 17  Conv=0.23D-08     -V/T= 2.0087
 KE= 2.814176209194D+02 PE=-1.019019230859D+03 EE= 2.770403561614D+02
 Leave Link  502 at Fri Sep 11 12:56:19 2015, MaxMem=    33554432 cpu:        15.9
 (Enter /usr/local/research/Gaussian09/g09-revD.01/g09/l508.exe)
 QCSCF skips out because SCF is already converged.
 Leave Link  508 at Fri Sep 11 12:56:19 2015, MaxMem=    33554432 cpu:         0.0
 (Enter /usr/local/research/Gaussian09/g09-revD.01/g09/l601.exe)
 Copying SCF densities to generalized density rwf, IOpCl= 0 IROHF=0.

 **********************************************************************

            Population analysis using the SCF density.

 **********************************************************************

 Orbital symmetries:
       Occupied  (A') (A') (A') (A') (A') (A') (A') (A') (A') (A')
                 (A") (A') (A') (A") (A') (A") (A') (A") (A') (A')
       Virtual   (A") (A') (A') (A") (A') (A") (A') (A') (A') (A')
                 (A') (A') (A") (A') (A") (A') (A') (A') (A') (A")
                 (A') (A") (A') (A') (A') (A") (A') (A") (A') (A')
                 (A") (A') (A") (A') (A') (A") (A") (A') (A') (A")
                 (A") (A") (A') (A') (A') (A') (A") (A') (A") (A')
                 (A') (A') (A") (A') (A') (A") (A') (A') (A") (A')
                 (A") (A') (A') (A") (A') (A") (A') (A") (A") (A')
                 (A") (A') (A') (A') (A')
 The electronic state is 1-A'.
 Alpha  occ. eigenvalues --  -18.79647 -18.74715 -13.97391 -10.01771  -9.93934
 Alpha  occ. eigenvalues --   -0.97133  -0.89563  -0.80299  -0.63671  -0.53271
 Alpha  occ. eigenvalues --   -0.48807  -0.44127  -0.40501  -0.38869  -0.37293
 Alpha  occ. eigenvalues --   -0.33342  -0.33143  -0.26839  -0.22367  -0.18935
 Alpha virt. eigenvalues --   -0.04498   0.02740   0.03862   0.08271   0.08735
 Alpha virt. eigenvalues --    0.14207   0.14524   0.16794   0.24969   0.29604
 Alpha virt. eigenvalues --    0.37970   0.41089   0.43894   0.49269   0.50395
 Alpha virt. eigenvalues --    0.51786   0.54800   0.57634   0.60245   0.60940
 Alpha virt. eigenvalues --    0.61226   0.68013   0.73715   0.78559   0.81760
 Alpha virt. eigenvalues --    0.81858   0.87424   0.90667   0.91444   1.00537
 Alpha virt. eigenvalues --    1.02640   1.10546   1.16349   1.18507   1.30100
 Alpha virt. eigenvalues --    1.32457   1.33565   1.36281   1.45551   1.49332
 Alpha virt. eigenvalues --    1.56795   1.58030   1.63677   1.67386   1.73855
 Alpha virt. eigenvalues --    1.74528   1.76058   1.82764   1.87699   1.88199
 Alpha virt. eigenvalues --    1.93600   2.05698   2.10477   2.10630   2.21043
 Alpha virt. eigenvalues --    2.26587   2.28840   2.32070   2.54233   2.58087
 Alpha virt. eigenvalues --    2.61477   2.63824   2.71790   2.77350   2.78294
 Alpha virt. eigenvalues --    2.82088   2.93028   2.93620   3.02577   3.05660
 Alpha virt. eigenvalues --    3.14424   3.33866   3.37668   3.45231   3.63956
          Condensed to atoms (all electrons):
               1          2          3          4          5          6
     1  N    6.101678   0.414396   0.388154   0.388154  -0.048945  -0.019437
     2  C    0.414396   5.045490  -0.059540  -0.059540   0.129842   0.336319
     3  H    0.388154  -0.059540   0.573311  -0.027485   0.003671   0.010587
     4  H    0.388154  -0.059540  -0.027485   0.573311   0.003671  -0.009951
     5  C   -0.048945   0.129842   0.003671   0.003671   4.904295  -0.016877
     6  H   -0.019437   0.336319   0.010587  -0.009951  -0.016877   0.649061
     7  H   -0.019437   0.336319  -0.009951   0.010587  -0.016877  -0.009009
     8  O   -0.006377  -0.133548   0.008403   0.008403   0.672179   0.001496
     9  O    0.001984  -0.088349   0.000263   0.000263   0.310757   0.006664
    10  H   -0.000375   0.014112  -0.000059  -0.000059  -0.001591  -0.000912
               7          8          9         10
     1  N   -0.019437  -0.006377   0.001984  -0.000375
     2  C    0.336319  -0.133548  -0.088349   0.014112
     3  H   -0.009951   0.008403   0.000263  -0.000059
     4  H    0.010587   0.008403   0.000263  -0.000059
     5  C   -0.016877   0.672179   0.310757  -0.001591
     6  H   -0.009009   0.001496   0.006664  -0.000912
     7  H    0.649061   0.001496   0.006664  -0.000912
     8  O    0.001496   7.741944  -0.076580   0.011042
     9  O    0.006664  -0.076580   7.746699   0.290407
    10  H   -0.000912   0.011042   0.290407   0.515116
 Mulliken charges:
               1
     1  N   -0.199794
     2  C    0.064501
     3  H    0.112646
     4  H    0.112646
     5  C    0.059876
     6  H    0.052060
     7  H    0.052060
     8  O   -0.228456
     9  O   -0.198771
    10  H    0.173231
 Sum of Mulliken charges =   0.00000
 Mulliken charges with hydrogens summed into heavy atoms:
               1
     1  N    0.025497
     2  C    0.168622
     5  C    0.059876
     8  O   -0.228456
     9  O   -0.025540
 Electronic spatial extent (au):  <R**2>=            426.1211
 Charge=              0.0000 electrons
 Dipole moment (field-independent basis, Debye):
    X=             -0.7706    Y=              0.4540    Z=              0.0000  Tot=              0.8943
 Quadrupole moment (field-independent basis, Debye-Ang):
   XX=            -33.0656   YY=            -27.8877   ZZ=            -26.3408
   XY=             -0.5459   XZ=              0.0000   YZ=              0.0000
 Traceless Quadrupole moment (field-independent basis, Debye-Ang):
   XX=             -3.9676   YY=              1.2103   ZZ=              2.7572
   XY=             -0.5459   XZ=              0.0000   YZ=              0.0000
 Octapole moment (field-independent basis, Debye-Ang**2):
  XXX=             -0.7555  YYY=             33.8619  ZZZ=              0.0000  XYY=              7.7702
  XXY=             -4.5391  XXZ=              0.0000  XZZ=              1.5760  YZZ=             -3.0340
  YYZ=              0.0000  XYZ=              0.0000
 Hexadecapole moment (field-independent basis, Debye-Ang**3):
 XXXX=           -138.4047 YYYY=           -315.1798 ZZZZ=            -33.4861 XXXY=              8.1629
 XXXZ=              0.0000 YYYX=              2.7590 YYYZ=              0.0000 ZZZX=              0.0000
 ZZZY=              0.0000 XXYY=            -80.9251 XXZZ=            -25.8106 YYZZ=            -53.6873
 XXYZ=              0.0000 YYXZ=              0.0000 ZZXY=              1.2886
 N-N= 1.766835887482D+02 E-N=-1.019019230407D+03  KE= 2.814176209194D+02
 Symmetry A'   KE= 2.684415863185D+02
 Symmetry A"   KE= 1.297603460092D+01
 No NMR shielding tensors so no spin-rotation constants.
 Leave Link  601 at Fri Sep 11 12:56:19 2015, MaxMem=    33554432 cpu:         0.3
 (Enter /usr/local/research/Gaussian09/g09-revD.01/g09/l701.exe)
 Compute integral first derivatives.
 ... and contract with generalized density number  0.
   2 Symmetry operations used in ECPInt.
 ECPInt:  NShTT=    1035 NPrTT=    3735 LenC2=    1033 LenP2D=    3186.
 LDataN:  DoStor=T MaxTD1= 5 Len=  102
 Leave Link  701 at Fri Sep 11 12:56:20 2015, MaxMem=    33554432 cpu:         0.3
 (Enter /usr/local/research/Gaussian09/g09-revD.01/g09/l702.exe)
 L702 exits ... SP integral derivatives will be done elsewhere.
 Leave Link  702 at Fri Sep 11 12:56:20 2015, MaxMem=    33554432 cpu:         0.0
 (Enter /usr/local/research/Gaussian09/g09-revD.01/g09/l703.exe)
 Compute integral first derivatives, UseDBF=F ICtDFT=           0.
 Integral derivatives from FoFJK, PRISM(SPDF).
 Calling FoFJK, ICntrl=      2527 FMM=F ISym2X=1 I1Cent= 0 IOpClX= 0 NMat=1 NMatS=1 NMatT=0.
 FoFJK:  IHMeth= 1 ICntrl=    2527 DoSepK=F KAlg= 0 I1Cent=   0 FoldK=F
 IRaf=         0 NMat=   1 IRICut=       1 DoRegI=T DoRafI=F ISym2E= 1.
 FoFCou: FMM=F IPFlag=           0 FMFlag=      100000 FMFlg1=         800
         NFxFlg=           0 DoJE=F BraDBF=F KetDBF=F FulRan=T
         wScrn=  0.000000 ICntrl=    2527 IOpCl=  0 I1Cent=           0 NGrid=           0
         NMat0=    1 NMatS0=      1 NMatT0=    0 NMatD0=    1 NMtDS0=    0 NMtDT0=    0
 Petite list used in FoFCou.
 Leave Link  703 at Fri Sep 11 12:56:25 2015, MaxMem=    33554432 cpu:         4.9
 (Enter /usr/local/research/Gaussian09/g09-revD.01/g09/l716.exe)
 Dipole        =-3.03159201D-01 1.78610925D-01 2.81892565D-18
 ***** Axes restored to original set *****
 -------------------------------------------------------------------
 Center     Atomic                   Forces (Hartrees/Bohr)
 Number     Number              X              Y              Z
 -------------------------------------------------------------------
      1        7          -0.062838821    0.010808632    0.000000000
      2        6           0.010152590   -0.001784066    0.000000000
      3        1           0.031991021   -0.008946578    0.000768293
      4        1           0.031991021   -0.008946578   -0.000768293
      5        6           0.064257501    0.045234344    0.000000000
      6        1          -0.011187322    0.003401242   -0.003603976
      7        1          -0.011187322    0.003401242    0.003603976
      8        8          -0.058275763    0.011054473    0.000000000
      9        8          -0.014972115   -0.060575063    0.000000000
     10        1           0.020069210    0.006352352    0.000000000
 -------------------------------------------------------------------
 Cartesian Forces:  Max     0.064257501 RMS     0.026273820
 Leave Link  716 at Fri Sep 11 12:56:25 2015, MaxMem=    33554432 cpu:         0.1
 (Enter /usr/local/research/Gaussian09/g09-revD.01/g09/l103.exe)

 GradGradGradGradGradGradGradGradGradGradGradGradGradGradGradGradGradGrad
 Berny optimization.
 FormGI is forming the generalized inverse of G from B-inverse, IUseBI=4.
 Internal  Forces:  Max     0.058920344 RMS     0.017807150
 Search for a local minimum.
 Step number   1 out of a maximum of   46
 All quantities printed in internal units (Hartrees-Bohrs-Radians)
 RMS Force = .17807D-01 SwitMx=.10000D-02 MixMth= 1
 Mixed Optimization -- RFO/linear search
 Second derivative matrix not updated -- first step.
 ITU=  0
     Eigenvalues ---    0.00475   0.00680   0.01044   0.01295   0.03819
     Eigenvalues ---    0.05394   0.06695   0.09577   0.13021   0.16000
     Eigenvalues ---    0.16000   0.16000   0.22088   0.25000   0.25000
     Eigenvalues ---    0.30177   0.33995   0.33995   0.38376   0.40990
     Eigenvalues ---    0.47558   0.47558   0.55477   0.80212
 RFO step:  Lambda=-3.34519833D-02 EMin= 4.75244460D-03
 Linear search not attempted -- first point.
 Maximum step size (   0.300) exceeded in Quadratic search.
    -- Step size scaled by   0.873
 Iteration  1 RMS(Cart)=  0.08176993 RMS(Int)=  0.00455969
 Iteration  2 RMS(Cart)=  0.00454597 RMS(Int)=  0.00051920
 Iteration  3 RMS(Cart)=  0.00003716 RMS(Int)=  0.00051844
 Iteration  4 RMS(Cart)=  0.00000005 RMS(Int)=  0.00051844
 ITry= 1 IFail=0 DXMaxC= 2.34D-01 DCOld= 1.00D+10 DXMaxT= 3.00D-01 DXLimC= 3.00D+00 Rises=F
 ClnCor:  largest displacement from symmetrization is 5.43D-10 for atom    10.
 Variable       Old X    -DE/DX   Delta X   Delta X   Delta X     New X
                                 (Linear)    (Quad)   (Total)
    R1        2.73821   0.00643   0.00000   0.01347   0.01347   2.75168
    R2        1.89113   0.01432   0.00000   0.02456   0.02456   1.91569
    R3        1.89113   0.01432   0.00000   0.02456   0.02456   1.91569
    R4        2.87612   0.00792   0.00000   0.02064   0.02064   2.89676
    R5        2.07339   0.00935   0.00000   0.02186   0.02186   2.09525
    R6        2.07339   0.00935   0.00000   0.02186   0.02186   2.09525
    R7        2.37802  -0.05892   0.00000  -0.06158  -0.06158   2.31644
    R8        2.70230  -0.05101   0.00000  -0.10047  -0.10047   2.60183
    R9        1.81411   0.01862   0.00000   0.02764   0.02764   1.84175
    A1        1.84166   0.02324   0.00000   0.09129   0.09036   1.93202
    A2        1.84166   0.02324   0.00000   0.09129   0.09036   1.93202
    A3        2.27886  -0.03312   0.00000  -0.17208  -0.17348   2.10538
    A4        1.92684   0.01544   0.00000   0.06284   0.06219   1.98904
    A5        1.90966  -0.00054   0.00000   0.01238   0.01233   1.92199
    A6        1.90966  -0.00054   0.00000   0.01238   0.01233   1.92199
    A7        1.89511  -0.00542   0.00000  -0.02046  -0.02159   1.87352
    A8        1.89511  -0.00542   0.00000  -0.02046  -0.02159   1.87352
    A9        1.92745  -0.00347   0.00000  -0.04699  -0.04762   1.87983
   A10        2.09438   0.02209   0.00000   0.06805   0.06805   2.16243
   A11        2.09439  -0.02792   0.00000  -0.08601  -0.08601   2.00838
   A12        2.09441   0.00583   0.00000   0.01796   0.01796   2.11237
   A13        1.91113  -0.01782   0.00000  -0.08042  -0.08042   1.83071
    D1        1.23084  -0.00331   0.00000  -0.04030  -0.03997   1.19087
    D2       -2.96768  -0.00083   0.00000  -0.01912  -0.01832  -2.98600
    D3       -0.85384  -0.00578   0.00000  -0.06147  -0.06162  -0.91546
    D4       -1.23084   0.00331   0.00000   0.04030   0.03997  -1.19087
    D5        0.85384   0.00578   0.00000   0.06147   0.06162   0.91546
    D6        2.96768   0.00083   0.00000   0.01912   0.01832   2.98600
    D7        0.00000   0.00000   0.00000   0.00000   0.00000   0.00000
    D8        3.14159   0.00000   0.00000   0.00000   0.00000   3.14159
    D9       -2.09346  -0.00526   0.00000  -0.04027  -0.03974  -2.13320
   D10        1.04814  -0.00526   0.00000  -0.04027  -0.03974   1.00840
   D11        2.09346   0.00526   0.00000   0.04027   0.03974   2.13320
   D12       -1.04814   0.00526   0.00000   0.04027   0.03974  -1.00840
   D13        3.14159   0.00000   0.00000   0.00000   0.00000   3.14159
   D14        0.00000   0.00000   0.00000   0.00000   0.00000   0.00000
         Item               Value     Threshold  Converged?
 Maximum Force            0.058920     0.000450     NO 
 RMS     Force            0.017807     0.000300     NO 
 Maximum Displacement     0.234458     0.001800     NO 
 RMS     Displacement     0.084277     0.001200     NO 
 Predicted change in Energy=-1.824288D-02
 Lowest energy point so far.  Saving SCF results.
 GradGradGradGradGradGradGradGradGradGradGradGradGradGradGradGradGradGrad

 Leave Link  103 at Fri Sep 11 12:56:25 2015, MaxMem=    33554432 cpu:         0.0
 (Enter /usr/local/research/Gaussian09/g09-revD.01/g09/l202.exe)
                          Input orientation:                          
 ---------------------------------------------------------------------
 Center     Atomic      Atomic             Coordinates (Angstroms)
 Number     Number       Type             X           Y           Z
 ---------------------------------------------------------------------
      1          7           0       -0.003013   -1.949298    0.000000
      2          6           0       -0.769646   -0.711326    0.000000
      3          1           0        0.484614   -2.068736    0.880695
      4          1           0        0.484614   -2.068736   -0.880695
      5          6           0        0.093477    0.555480    0.000000
      6          1           0       -1.422131   -0.666740   -0.895331
      7          1           0       -1.422131   -0.666740    0.895331
      8          8           0        1.319257    0.547568    0.000000
      9          8           0       -0.608632    1.739838    0.000000
     10          1           0        0.073847    2.435601    0.000000
 ---------------------------------------------------------------------
                    Distance matrix (angstroms):
                    1          2          3          4          5
     1  N    0.000000
     2  C    1.456125   0.000000
     3  H    1.013740   2.047280   0.000000
     4  H    1.013740   2.047280   1.761390   0.000000
     5  C    2.506636   1.532899   2.795554   2.795554   0.000000
     6  H    2.111982   1.108757   2.958976   2.366746   2.143013
     7  H    2.111982   1.108757   2.366746   2.958976   2.143013
     8  O    2.825374   2.438921   2.883973   2.883973   1.225806
     9  O    3.738516   2.456447   4.059070   4.059070   1.376830
    10  H    4.385572   3.258011   4.607972   4.607972   1.880224
                    6          7          8          9         10
     6  H    0.000000
     7  H    1.790661   0.000000
     8  O    3.129117   3.129117   0.000000
     9  O    2.693513   2.693513   2.266774   0.000000
    10  H    3.558664   3.558664   2.261794   0.974610   0.000000
 Stoichiometry    C2H5NO2
 Framework group  CS[SG(C2HNO2),X(H4)]
 Deg. of freedom    15
 Full point group                 CS      NOp   2
 RotChk:  IX=0 Diff= 1.00D-01
 Largest Abelian subgroup         CS      NOp   2
 Largest concise Abelian subgroup CS      NOp   2
                         Standard orientation:                         
 ---------------------------------------------------------------------
 Center     Atomic      Atomic             Coordinates (Angstroms)
 Number     Number       Type             X           Y           Z
 ---------------------------------------------------------------------
      1          7           0        0.355123   -1.934059    0.000000
      2          6           0       -0.621465   -0.853978    0.000000
      3          1           0        0.856274   -1.963940    0.880695
      4          1           0        0.856274   -1.963940   -0.880695
      5          6           0        0.000000    0.547293    0.000000
      6          1           0       -1.271343   -0.927351   -0.895331
      7          1           0       -1.271343   -0.927351    0.895331
      8          8           0        1.207254    0.759750    0.000000
      9          8           0       -0.903481    1.586227    0.000000
     10          1           0       -0.357118    2.393291    0.000000
 ---------------------------------------------------------------------
 Rotational constants (GHZ):     10.3893548      3.7528990      2.8560679
 Leave Link  202 at Fri Sep 11 12:56:25 2015, MaxMem=    33554432 cpu:         0.0
 (Enter /usr/local/research/Gaussian09/g09-revD.01/g09/l301.exe)
 Standard basis: def2SVP (5D, 7F)
 Ernie: Thresh=  0.10000D-02 Tol=  0.10000D-05 Strict=F.
 There are    69 symmetry adapted cartesian basis functions of A'  symmetry.
 There are    31 symmetry adapted cartesian basis functions of A"  symmetry.
 There are    64 symmetry adapted basis functions of A'  symmetry.
 There are    31 symmetry adapted basis functions of A"  symmetry.
    95 basis functions,   160 primitive gaussians,   100 cartesian basis functions
    20 alpha electrons       20 beta electrons
       nuclear repulsion energy       177.2403465174 Hartrees.
 IExCor= 1009 DFT=T Ex=PBE Corr=PBE ExCW=0 ScaHFX=  0.000000
 ScaDFX=  1.000000  1.000000  1.000000  1.000000 ScalE2=  1.000000  1.000000
 IRadAn=      0 IRanWt=     -1 IRanGd=            0 ICorTp=0 IEmpDi=  4
 NAtoms=   10 NActive=   10 NUniq=    8 SFac= 1.56D+00 NAtFMM=   60 NAOKFM=F Big=F
 Integral buffers will be    131072 words long.
 Raffenetti 2 integral format.
 Two-electron integral symmetry is turned on.
 Leave Link  301 at Fri Sep 11 12:56:25 2015, MaxMem=    33554432 cpu:         0.1
 (Enter /usr/local/research/Gaussian09/g09-revD.01/g09/l302.exe)
 NPDir=0 NMtPBC=     1 NCelOv=     1 NCel=       1 NClECP=     1 NCelD=      1
         NCelK=      1 NCelE2=     1 NClLst=     1 CellRange=     0.0.
 One-electron integrals computed using PRISM.
 One-electron integral symmetry used in STVInt
   2 Symmetry operations used in ECPInt.
 ECPInt:  NShTT=    1035 NPrTT=    3735 LenC2=    1033 LenP2D=    3178.
 LDataN:  DoStor=T MaxTD1= 4 Len=   56
 NBasis=    95 RedAO= T EigKep=  3.74D-03  NBF=    64    31
 NBsUse=    95 1.00D-06 EigRej= -1.00D+00 NBFU=    64    31
 Precomputing XC quadrature grid using
 IXCGrd= 4 IRadAn=           0 IRanWt=          -1 IRanGd=           0 AccXCQ= 0.00D+00.
 Generated NRdTot=       0 NPtTot=           0 NUsed=           0 NTot=          32
 NSgBfM=   100   100   100   100   100 MxSgAt=    10 MxSgA2=    10.
 Leave Link  302 at Fri Sep 11 12:56:26 2015, MaxMem=    33554432 cpu:         0.5
 (Enter /usr/local/research/Gaussian09/g09-revD.01/g09/l303.exe)
 DipDrv:  MaxL=1.
 Leave Link  303 at Fri Sep 11 12:56:26 2015, MaxMem=    33554432 cpu:         0.1
 (Enter /usr/local/research/Gaussian09/g09-revD.01/g09/l401.exe)
 Initial guess from the checkpoint file:  "1-ttt.chk"
 B after Tr=     0.000000    0.000000    0.000000
         Rot=    0.999133    0.000000    0.000000   -0.041643 Ang=  -4.77 deg.
 Guess basis will be translated and rotated to current coordinates.
 JPrj=2 DoOrth=T DoCkMO=T.
 Initial guess orbital symmetries:
       Occupied  (A') (A') (A') (A') (A') (A') (A') (A') (A') (A')
                 (A") (A') (A') (A") (A') (A") (A') (A") (A') (A')
       Virtual   (A') (A') (A') (A') (A') (A') (A') (A') (A') (A')
                 (A') (A') (A') (A') (A') (A') (A') (A') (A') (A')
                 (A') (A') (A') (A') (A') (A') (A') (A') (A') (A')
                 (A') (A') (A') (A') (A') (A') (A') (A') (A') (A')
                 (A') (A') (A') (A') (A') (A') (A') (A') (A") (A")
                 (A") (A") (A") (A") (A") (A") (A") (A") (A") (A")
                 (A") (A") (A") (A") (A") (A") (A") (A") (A") (A")
                 (A") (A") (A") (A") (A")
 The electronic state of the initial guess is 1-A'.
 Generating alternative initial guess.
 ExpMin= 1.22D-01 ExpMax= 2.27D+03 ExpMxC= 3.41D+02 IAcc=1 IRadAn=         1 AccDes= 0.00D+00
 Harris functional with IExCor= 1009 and IRadAn=       1 diagonalized for initial guess.
 HarFok:  IExCor= 1009 AccDes= 0.00D+00 IRadAn=         1 IDoV= 1 UseB2=F ITyADJ=14
 ICtDFT=  3500011 ScaDFX=  1.000000  1.000000  1.000000  1.000000
 FoFCou: FMM=F IPFlag=           0 FMFlag=      100000 FMFlg1=           0
         NFxFlg=           0 DoJE=T BraDBF=F KetDBF=T FulRan=T
         wScrn=  0.000000 ICntrl=     500 IOpCl=  0 I1Cent=   200000004 NGrid=           0
         NMat0=    1 NMatS0=      1 NMatT0=    0 NMatD0=    1 NMtDS0=    0 NMtDT0=    0
 Petite list used in FoFCou.
 Harris En= -283.970859016024    
 Leave Link  401 at Fri Sep 11 12:56:26 2015, MaxMem=    33554432 cpu:         0.8
 (Enter /usr/local/research/Gaussian09/g09-revD.01/g09/l502.exe)
 Closed shell SCF:
 Using DIIS extrapolation, IDIIS=  1040.
 Integral symmetry usage will be decided dynamically.
 Keep J ints in memory in symmetry-blocked form, NReq=15735152.
 IVT=       37446 IEndB=       37446 NGot=    33554432 MDV=    28218456
 LenX=    28218456 LenY=    28208015
 Requested convergence on RMS density matrix=1.00D-08 within  64 cycles.
 Requested convergence on MAX density matrix=1.00D-06.
 Requested convergence on             energy=1.00D-06.
 No special actions if energy rises.
 FoFCou: FMM=F IPFlag=           0 FMFlag=           0 FMFlg1=           0
         NFxFlg=           0 DoJE=F BraDBF=F KetDBF=F FulRan=T
         wScrn=  0.000000 ICntrl=     600 IOpCl=  0 I1Cent=           0 NGrid=           0
         NMat0=    1 NMatS0=   4560 NMatT0=    0 NMatD0=    1 NMtDS0=    0 NMtDT0=    0
 Petite list used in FoFCou.
 Integral accuracy reduced to 1.0D-05 until final iterations.

 Cycle   1  Pass 0  IDiag  1:
 E= -283.887846841273    
 DIIS: error= 4.85D-03 at cycle   1 NSaved=   1.
 NSaved= 1 IEnMin= 1 EnMin= -283.887846841273     IErMin= 1 ErrMin= 4.85D-03
 ErrMax= 4.85D-03  0.00D+00 EMaxC= 1.00D-01 BMatC= 7.23D-03 BMatP= 7.23D-03
 IDIUse=3 WtCom= 9.51D-01 WtEn= 4.85D-02
 Coeff-Com:  0.100D+01
 Coeff-En:   0.100D+01
 Coeff:      0.100D+01
 Gap=     0.586 Goal=   None    Shift=    0.000
 GapD=    0.586 DampG=2.000 DampE=1.000 DampFc=2.0000 IDamp=-1.
 RMSDP=1.63D-03 MaxDP=2.02D-02              OVMax= 2.92D-02

 Cycle   2  Pass 0  IDiag  1:
 E= -283.896594970754     Delta-E=       -0.008748129481 Rises=F Damp=F
 DIIS: error= 2.60D-03 at cycle   2 NSaved=   2.
 NSaved= 2 IEnMin= 2 EnMin= -283.896594970754     IErMin= 2 ErrMin= 2.60D-03
 ErrMax= 2.60D-03  0.00D+00 EMaxC= 1.00D-01 BMatC= 7.73D-04 BMatP= 7.23D-03
 IDIUse=3 WtCom= 9.74D-01 WtEn= 2.60D-02
 Coeff-Com:  0.138D+00 0.862D+00
 Coeff-En:   0.000D+00 0.100D+01
 Coeff:      0.134D+00 0.866D+00
 Gap=     0.165 Goal=   None    Shift=    0.000
 RMSDP=7.56D-04 MaxDP=1.74D-02 DE=-8.75D-03 OVMax= 3.23D-02

 Cycle   3  Pass 0  IDiag  1:
 E= -283.894942266998     Delta-E=        0.001652703756 Rises=F Damp=F
 DIIS: error= 6.02D-03 at cycle   3 NSaved=   3.
 NSaved= 3 IEnMin= 2 EnMin= -283.896594970754     IErMin= 2 ErrMin= 2.60D-03
 ErrMax= 6.02D-03  0.00D+00 EMaxC= 1.00D-01 BMatC= 2.80D-03 BMatP= 7.73D-04
 IDIUse=3 WtCom= 1.14D-01 WtEn= 8.86D-01
 Coeff-Com:  0.307D-01 0.650D+00 0.319D+00
 Coeff-En:   0.000D+00 0.726D+00 0.274D+00
 Coeff:      0.350D-02 0.718D+00 0.279D+00
 Gap=     0.161 Goal=   None    Shift=    0.000
 RMSDP=4.64D-04 MaxDP=1.17D-02 DE= 1.65D-03 OVMax= 2.17D-02

 Cycle   4  Pass 0  IDiag  1:
 E= -283.897152550639     Delta-E=       -0.002210283641 Rises=F Damp=F
 DIIS: error= 7.97D-04 at cycle   4 NSaved=   4.
 NSaved= 4 IEnMin= 4 EnMin= -283.897152550639     IErMin= 4 ErrMin= 7.97D-04
 ErrMax= 7.97D-04  0.00D+00 EMaxC= 1.00D-01 BMatC= 1.21D-04 BMatP= 7.73D-04
 IDIUse=3 WtCom= 9.92D-01 WtEn= 7.97D-03
 Coeff-Com:  0.157D-02 0.373D+00 0.147D+00 0.479D+00
 Coeff-En:   0.000D+00 0.879D-01 0.000D+00 0.912D+00
 Coeff:      0.156D-02 0.370D+00 0.146D+00 0.482D+00
 Gap=     0.157 Goal=   None    Shift=    0.000
 RMSDP=1.40D-04 MaxDP=4.11D-03 DE=-2.21D-03 OVMax= 3.31D-03

 Cycle   5  Pass 0  IDiag  1:
 E= -283.897257418040     Delta-E=       -0.000104867401 Rises=F Damp=F
 DIIS: error= 2.69D-04 at cycle   5 NSaved=   5.
 NSaved= 5 IEnMin= 5 EnMin= -283.897257418040     IErMin= 5 ErrMin= 2.69D-04
 ErrMax= 2.69D-04  0.00D+00 EMaxC= 1.00D-01 BMatC= 7.98D-06 BMatP= 1.21D-04
 IDIUse=3 WtCom= 9.97D-01 WtEn= 2.69D-03
 Coeff-Com:  0.242D-03 0.177D+00 0.637D-01 0.288D+00 0.471D+00
 Coeff-En:   0.000D+00 0.000D+00 0.000D+00 0.000D+00 0.100D+01
 Coeff:      0.241D-03 0.176D+00 0.636D-01 0.288D+00 0.472D+00
 Gap=     0.158 Goal=   None    Shift=    0.000
 RMSDP=2.86D-05 MaxDP=6.46D-04 DE=-1.05D-04 OVMax= 8.26D-04

 Cycle   6  Pass 0  IDiag  1:
 E= -283.897263915864     Delta-E=       -0.000006497824 Rises=F Damp=F
 DIIS: error= 7.55D-05 at cycle   6 NSaved=   6.
 NSaved= 6 IEnMin= 6 EnMin= -283.897263915864     IErMin= 6 ErrMin= 7.55D-05
 ErrMax= 7.55D-05  0.00D+00 EMaxC= 1.00D-01 BMatC= 6.32D-07 BMatP= 7.98D-06
 IDIUse=1 WtCom= 1.00D+00 WtEn= 0.00D+00
 Coeff-Com:  0.226D-03 0.750D-01 0.253D-01 0.138D+00 0.285D+00 0.476D+00
 Coeff:      0.226D-03 0.750D-01 0.253D-01 0.138D+00 0.285D+00 0.476D+00
 Gap=     0.158 Goal=   None    Shift=    0.000
 RMSDP=9.03D-06 MaxDP=1.79D-04 DE=-6.50D-06 OVMax= 1.97D-04

 Initial convergence to 1.0D-05 achieved.  Increase integral accuracy.
 Cycle   7  Pass 1  IDiag  1:
 E= -283.897271335141     Delta-E=       -0.000007419277 Rises=F Damp=F
 DIIS: error= 1.25D-05 at cycle   1 NSaved=   1.
 NSaved= 1 IEnMin= 1 EnMin= -283.897271335141     IErMin= 1 ErrMin= 1.25D-05
 ErrMax= 1.25D-05  0.00D+00 EMaxC= 1.00D-01 BMatC= 3.92D-08 BMatP= 3.92D-08
 IDIUse=1 WtCom= 1.00D+00 WtEn= 0.00D+00
 Coeff-Com:  0.100D+01
 Coeff:      0.100D+01
 Gap=     0.158 Goal=   None    Shift=    0.000
 RMSDP=9.03D-06 MaxDP=1.79D-04 DE=-7.42D-06 OVMax= 1.23D-04

 Cycle   8  Pass 1  IDiag  1:
 E= -283.897271290536     Delta-E=        0.000000044605 Rises=F Damp=F
 DIIS: error= 2.40D-05 at cycle   2 NSaved=   2.
 NSaved= 2 IEnMin= 1 EnMin= -283.897271335141     IErMin= 1 ErrMin= 1.25D-05
 ErrMax= 2.40D-05  0.00D+00 EMaxC= 1.00D-01 BMatC= 1.02D-07 BMatP= 3.92D-08
 IDIUse=1 WtCom= 1.00D+00 WtEn= 0.00D+00
 Coeff-Com:  0.629D+00 0.371D+00
 Coeff:      0.629D+00 0.371D+00
 Gap=     0.158 Goal=   None    Shift=    0.000
 RMSDP=3.34D-06 MaxDP=5.28D-05 DE= 4.46D-08 OVMax= 8.80D-05

 Cycle   9  Pass 1  IDiag  1:
 E= -283.897271372176     Delta-E=       -0.000000081640 Rises=F Damp=F
 DIIS: error= 6.03D-06 at cycle   3 NSaved=   3.
 NSaved= 3 IEnMin= 3 EnMin= -283.897271372176     IErMin= 3 ErrMin= 6.03D-06
 ErrMax= 6.03D-06  0.00D+00 EMaxC= 1.00D-01 BMatC= 4.04D-09 BMatP= 3.92D-08
 IDIUse=1 WtCom= 1.00D+00 WtEn= 0.00D+00
 Coeff-Com:  0.196D+00 0.191D+00 0.614D+00
 Coeff:      0.196D+00 0.191D+00 0.614D+00
 Gap=     0.158 Goal=   None    Shift=    0.000
 RMSDP=8.34D-07 MaxDP=2.36D-05 DE=-8.16D-08 OVMax= 3.05D-05

 Cycle  10  Pass 1  IDiag  1:
 E= -283.897271373063     Delta-E=       -0.000000000887 Rises=F Damp=F
 DIIS: error= 5.80D-06 at cycle   4 NSaved=   4.
 NSaved= 4 IEnMin= 4 EnMin= -283.897271373063     IErMin= 4 ErrMin= 5.80D-06
 ErrMax= 5.80D-06  0.00D+00 EMaxC= 1.00D-01 BMatC= 2.65D-09 BMatP= 4.04D-09
 IDIUse=1 WtCom= 1.00D+00 WtEn= 0.00D+00
 Coeff-Com:  0.481D-01 0.889D-01 0.479D+00 0.384D+00
 Coeff:      0.481D-01 0.889D-01 0.479D+00 0.384D+00
 Gap=     0.158 Goal=   None    Shift=    0.000
 RMSDP=5.62D-07 MaxDP=1.40D-05 DE=-8.87D-10 OVMax= 2.63D-05

 Cycle  11  Pass 1  IDiag  1:
 E= -283.897271374966     Delta-E=       -0.000000001903 Rises=F Damp=F
 DIIS: error= 2.18D-06 at cycle   5 NSaved=   5.
 NSaved= 5 IEnMin= 5 EnMin= -283.897271374966     IErMin= 5 ErrMin= 2.18D-06
 ErrMax= 2.18D-06  0.00D+00 EMaxC= 1.00D-01 BMatC= 3.17D-10 BMatP= 2.65D-09
 IDIUse=1 WtCom= 1.00D+00 WtEn= 0.00D+00
 Coeff-Com:  0.757D-02 0.363D-01 0.249D+00 0.287D+00 0.421D+00
 Coeff:      0.757D-02 0.363D-01 0.249D+00 0.287D+00 0.421D+00
 Gap=     0.158 Goal=   None    Shift=    0.000
 RMSDP=1.91D-07 MaxDP=3.44D-06 DE=-1.90D-09 OVMax= 7.52D-06

 Cycle  12  Pass 1  IDiag  1:
 E= -283.897271375221     Delta-E=       -0.000000000254 Rises=F Damp=F
 DIIS: error= 3.59D-07 at cycle   6 NSaved=   6.
 NSaved= 6 IEnMin= 6 EnMin= -283.897271375221     IErMin= 6 ErrMin= 3.59D-07
 ErrMax= 3.59D-07  0.00D+00 EMaxC= 1.00D-01 BMatC= 1.54D-11 BMatP= 3.17D-10
 IDIUse=1 WtCom= 1.00D+00 WtEn= 0.00D+00
 Coeff-Com: -0.983D-03 0.122D-01 0.980D-01 0.137D+00 0.246D+00 0.507D+00
 Coeff:     -0.983D-03 0.122D-01 0.980D-01 0.137D+00 0.246D+00 0.507D+00
 Gap=     0.158 Goal=   None    Shift=    0.000
 RMSDP=4.58D-08 MaxDP=6.82D-07 DE=-2.54D-10 OVMax= 9.61D-07

 Cycle  13  Pass 1  IDiag  1:
 E= -283.897271375231     Delta-E=       -0.000000000010 Rises=F Damp=F
 DIIS: error= 4.23D-08 at cycle   7 NSaved=   7.
 NSaved= 7 IEnMin= 7 EnMin= -283.897271375231     IErMin= 7 ErrMin= 4.23D-08
 ErrMax= 4.23D-08  0.00D+00 EMaxC= 1.00D-01 BMatC= 3.16D-13 BMatP= 1.54D-11
 IDIUse=1 WtCom= 1.00D+00 WtEn= 0.00D+00
 Coeff-Com: -0.390D-03 0.428D-02 0.347D-01 0.521D-01 0.916D-01 0.224D+00
 Coeff-Com:  0.594D+00
 Coeff:     -0.390D-03 0.428D-02 0.347D-01 0.521D-01 0.916D-01 0.224D+00
 Coeff:      0.594D+00
 Gap=     0.158 Goal=   None    Shift=    0.000
 RMSDP=8.10D-09 MaxDP=1.62D-07 DE=-1.03D-11 OVMax= 1.98D-07

 SCF Done:  E(RPBE-PBE) =  -283.897271375     A.U. after   13 cycles
            NFock= 13  Conv=0.81D-08     -V/T= 2.0086
 KE= 2.814739800604D+02 PE=-1.020145651360D+03 EE= 2.775340534069D+02
 Leave Link  502 at Fri Sep 11 12:56:40 2015, MaxMem=    33554432 cpu:        13.2
 (Enter /usr/local/research/Gaussian09/g09-revD.01/g09/l508.exe)
 QCSCF skips out because SCF is already converged.
 Leave Link  508 at Fri Sep 11 12:56:40 2015, MaxMem=    33554432 cpu:         0.0
 (Enter /usr/local/research/Gaussian09/g09-revD.01/g09/l701.exe)
 Compute integral first derivatives.
 ... and contract with generalized density number  0.
   2 Symmetry operations used in ECPInt.
 ECPInt:  NShTT=    1035 NPrTT=    3735 LenC2=    1033 LenP2D=    3178.
 LDataN:  DoStor=T MaxTD1= 5 Len=  102
 Leave Link  701 at Fri Sep 11 12:56:40 2015, MaxMem=    33554432 cpu:         0.3
 (Enter /usr/local/research/Gaussian09/g09-revD.01/g09/l702.exe)
 L702 exits ... SP integral derivatives will be done elsewhere.
 Leave Link  702 at Fri Sep 11 12:56:40 2015, MaxMem=    33554432 cpu:         0.0
 (Enter /usr/local/research/Gaussian09/g09-revD.01/g09/l703.exe)
 Compute integral first derivatives, UseDBF=F ICtDFT=           0.
 Integral derivatives from FoFJK, PRISM(SPDF).
 Calling FoFJK, ICntrl=      2527 FMM=F ISym2X=1 I1Cent= 0 IOpClX= 0 NMat=1 NMatS=1 NMatT=0.
 FoFJK:  IHMeth= 1 ICntrl=    2527 DoSepK=F KAlg= 0 I1Cent=   0 FoldK=F
 IRaf=         0 NMat=   1 IRICut=       1 DoRegI=T DoRafI=F ISym2E= 1.
 FoFCou: FMM=F IPFlag=           0 FMFlag=      100000 FMFlg1=         800
         NFxFlg=           0 DoJE=F BraDBF=F KetDBF=F FulRan=T
         wScrn=  0.000000 ICntrl=    2527 IOpCl=  0 I1Cent=           0 NGrid=           0
         NMat0=    1 NMatS0=      1 NMatT0=    0 NMatD0=    1 NMtDS0=    0 NMtDT0=    0
 Petite list used in FoFCou.
 Leave Link  703 at Fri Sep 11 12:56:45 2015, MaxMem=    33554432 cpu:         4.8
 (Enter /usr/local/research/Gaussian09/g09-revD.01/g09/l716.exe)
 Dipole        =-2.59092644D-01 1.53901905D-01-2.17485450D-16
 ***** Axes restored to original set *****
 -------------------------------------------------------------------
 Center     Atomic                   Forces (Hartrees/Bohr)
 Number     Number              X              Y              Z
 -------------------------------------------------------------------
      1        7          -0.037725484    0.012101317    0.000000000
      2        6           0.011828459   -0.005917882    0.000000000
      3        1           0.015436736   -0.002379449   -0.004001797
      4        1           0.015436736   -0.002379449    0.004001797
      5        6           0.017212043    0.014073543    0.000000000
      6        1          -0.004043419    0.000945397    0.000589976
      7        1          -0.004043419    0.000945397   -0.000589976
      8        8          -0.014219925   -0.001060170    0.000000000
      9        8          -0.005098426   -0.020528260    0.000000000
     10        1           0.005216700    0.004199558    0.000000000
 -------------------------------------------------------------------
 Cartesian Forces:  Max     0.037725484 RMS     0.010785192
 Leave Link  716 at Fri Sep 11 12:56:45 2015, MaxMem=    33554432 cpu:         0.1
 (Enter /usr/local/research/Gaussian09/g09-revD.01/g09/l103.exe)

 GradGradGradGradGradGradGradGradGradGradGradGradGradGradGradGradGradGrad
 Berny optimization.
 Using GEDIIS/GDIIS optimizer.
 FormGI is forming the generalized inverse of G from B-inverse, IUseBI=4.
 Internal  Forces:  Max     0.015399056 RMS     0.005989462
 Search for a local minimum.
 Step number   2 out of a maximum of   46
 All quantities printed in internal units (Hartrees-Bohrs-Radians)
 RMS Force = .59895D-02 SwitMx=.10000D-02 MixMth= 1
 Mixed Optimization -- RFO/linear search
 Update second derivatives using D2CorX and points    1    2
 DE= -1.96D-02 DEPred=-1.82D-02 R= 1.07D+00
 TightC=F SS=  1.41D+00  RLast= 3.28D-01 DXNew= 5.0454D-01 9.8506D-01
 Trust test= 1.07D+00 RLast= 3.28D-01 DXMaxT set to 5.05D-01
 ITU=  1  0
 Use linear search instead of GDIIS.
     Eigenvalues ---    0.00475   0.00671   0.01044   0.01295   0.03053
     Eigenvalues ---    0.04885   0.06553   0.10222   0.13406   0.14449
     Eigenvalues ---    0.16000   0.16554   0.22347   0.23683   0.25569
     Eigenvalues ---    0.30383   0.33995   0.34010   0.37958   0.42408
     Eigenvalues ---    0.47482   0.47558   0.55207   0.79748
 RFO step:  Lambda=-5.20634602D-03 EMin= 4.75244460D-03
 Quartic linear search produced a step of  0.49511.
 Iteration  1 RMS(Cart)=  0.04988596 RMS(Int)=  0.00389375
 Iteration  2 RMS(Cart)=  0.00374729 RMS(Int)=  0.00132926
 Iteration  3 RMS(Cart)=  0.00003622 RMS(Int)=  0.00132901
 Iteration  4 RMS(Cart)=  0.00000018 RMS(Int)=  0.00132901
 ITry= 1 IFail=0 DXMaxC= 1.34D-01 DCOld= 1.00D+10 DXMaxT= 5.05D-01 DXLimC= 3.00D+00 Rises=F
 ClnCor:  largest displacement from symmetrization is 5.33D-09 for atom    10.
 Variable       Old X    -DE/DX   Delta X   Delta X   Delta X     New X
                                 (Linear)    (Quad)   (Total)
    R1        2.75168  -0.00985   0.00667  -0.04391  -0.03724   2.71444
    R2        1.91569   0.00423   0.01216   0.00163   0.01379   1.92949
    R3        1.91569   0.00423   0.01216   0.00163   0.01379   1.92949
    R4        2.89676  -0.00099   0.01022  -0.01482  -0.00460   2.89216
    R5        2.09525   0.00194   0.01082  -0.00215   0.00867   2.10391
    R6        2.09525   0.00194   0.01082  -0.00215   0.00867   2.10391
    R7        2.31644  -0.01421  -0.03049   0.00151  -0.02898   2.28746
    R8        2.60183  -0.01411  -0.04974  -0.00309  -0.05283   2.54900
    R9        1.84175   0.00665   0.01368   0.00492   0.01861   1.86035
    A1        1.93202   0.00752   0.04474  -0.03037   0.01137   1.94339
    A2        1.93202   0.00752   0.04474  -0.03037   0.01137   1.94339
    A3        2.10538  -0.01540  -0.08589  -0.11980  -0.21121   1.89417
    A4        1.98904   0.00204   0.03079  -0.01068   0.01954   2.00857
    A5        1.92199   0.00061   0.00611   0.00559   0.01158   1.93357
    A6        1.92199   0.00061   0.00611   0.00559   0.01158   1.93357
    A7        1.87352  -0.00059  -0.01069   0.00869  -0.00281   1.87071
    A8        1.87352  -0.00059  -0.01069   0.00869  -0.00281   1.87071
    A9        1.87983  -0.00240  -0.02358  -0.01857  -0.04249   1.83735
   A10        2.16243   0.00488   0.03369  -0.00565   0.02804   2.19047
   A11        2.00838  -0.01242  -0.04259  -0.02919  -0.07177   1.93661
   A12        2.11237   0.00754   0.00889   0.03484   0.04373   2.15611
   A13        1.83071  -0.00144  -0.03982   0.03049  -0.00933   1.82138
    D1        1.19087  -0.00388  -0.01979  -0.11424  -0.13259   1.05828
    D2       -2.98600  -0.00278  -0.00907  -0.10626  -0.11354  -3.09954
    D3       -0.91546  -0.00497  -0.03051  -0.12221  -0.15163  -1.06709
    D4       -1.19087   0.00388   0.01979   0.11424   0.13259  -1.05828
    D5        0.91546   0.00497   0.03051   0.12221   0.15163   1.06709
    D6        2.98600   0.00278   0.00907   0.10626   0.11354   3.09954
    D7        0.00000   0.00000   0.00000   0.00000   0.00000   0.00000
    D8        3.14159   0.00000   0.00000   0.00000   0.00000   3.14159
    D9       -2.13320  -0.00168  -0.01968  -0.00645  -0.02581  -2.15901
   D10        1.00840  -0.00168  -0.01968  -0.00645  -0.02581   0.98258
   D11        2.13320   0.00168   0.01968   0.00645   0.02581   2.15901
   D12       -1.00840   0.00168   0.01968   0.00645   0.02581  -0.98258
   D13        3.14159   0.00000   0.00000   0.00000   0.00000   3.14159
   D14        0.00000   0.00000   0.00000   0.00000   0.00000   0.00000
         Item               Value     Threshold  Converged?
 Maximum Force            0.015399     0.000450     NO 
 RMS     Force            0.005989     0.000300     NO 
 Maximum Displacement     0.133629     0.001800     NO 
 RMS     Displacement     0.051097     0.001200     NO 
 Predicted change in Energy=-5.387998D-03
 Lowest energy point so far.  Saving SCF results.
 GradGradGradGradGradGradGradGradGradGradGradGradGradGradGradGradGradGrad

 Leave Link  103 at Fri Sep 11 12:56:45 2015, MaxMem=    33554432 cpu:         0.0
 (Enter /usr/local/research/Gaussian09/g09-revD.01/g09/l202.exe)
                          Input orientation:                          
 ---------------------------------------------------------------------
 Center     Atomic      Atomic             Coordinates (Angstroms)
 Number     Number       Type             X           Y           Z
 ---------------------------------------------------------------------
      1          7           0       -0.064418   -1.953802    0.000000
      2          6           0       -0.766664   -0.700746    0.000000
      3          1           0        0.524103   -2.050060    0.828795
      4          1           0        0.524103   -2.050060   -0.828795
      5          6           0        0.125334    0.542901    0.000000
      6          1           0       -1.437957   -0.624050   -0.884882
      7          1           0       -1.437957   -0.624050    0.884882
      8          8           0        1.335802    0.539837    0.000000
      9          8           0       -0.617014    1.669125    0.000000
     10          1           0        0.044922    2.397819    0.000000
 ---------------------------------------------------------------------
                    Distance matrix (angstroms):
                    1          2          3          4          5
     1  N    0.000000
     2  C    1.436419   0.000000
     3  H    1.021040   2.042946   0.000000
     4  H    1.021040   2.042946   1.657589   0.000000
     5  C    2.503904   1.530463   2.751248   2.751248   0.000000
     6  H    2.106625   1.113344   2.969827   2.426176   2.142118
     7  H    2.106625   1.113344   2.426176   2.969827   2.142118
     8  O    2.859869   2.441190   2.837838   2.837838   1.210472
     9  O    3.664828   2.374591   3.977611   3.977611   1.348874
    10  H    4.352995   3.203089   4.549741   4.549741   1.856661
                    6          7          8          9         10
     6  H    0.000000
     7  H    1.769765   0.000000
     8  O    3.135504   3.135504   0.000000
     9  O    2.591450   2.591450   2.255833   0.000000
    10  H    3.480465   3.480465   2.262404   0.984457   0.000000
 Stoichiometry    C2H5NO2
 Framework group  CS[SG(C2HNO2),X(H4)]
 Deg. of freedom    15
 Full point group                 CS      NOp   2
 RotChk:  IX=0 Diff= 8.73D-02
 Largest Abelian subgroup         CS      NOp   2
 Largest concise Abelian subgroup CS      NOp   2
                         Standard orientation:                         
 ---------------------------------------------------------------------
 Center     Atomic      Atomic             Coordinates (Angstroms)
 Number     Number       Type             X           Y           Z
 ---------------------------------------------------------------------
      1          7           0        0.415014   -1.912537    0.000000
      2          6           0       -0.567445   -0.864648    0.000000
      3          1           0        1.009436   -1.864734    0.828795
      4          1           0        1.009436   -1.864734   -0.828795
      5          6           0        0.000000    0.556733    0.000000
      6          1           0       -1.237525   -0.951306   -0.884882
      7          1           0       -1.237525   -0.951306    0.884882
      8          8           0        1.175824    0.844276    0.000000
      9          8           0       -0.990949    1.471873    0.000000
     10          1           0       -0.523250    2.338136    0.000000
 ---------------------------------------------------------------------
 Rotational constants (GHZ):     10.2258671      3.8824405      2.9100564
 Leave Link  202 at Fri Sep 11 12:56:45 2015, MaxMem=    33554432 cpu:         0.0
 (Enter /usr/local/research/Gaussian09/g09-revD.01/g09/l301.exe)
 Standard basis: def2SVP (5D, 7F)
 Ernie: Thresh=  0.10000D-02 Tol=  0.10000D-05 Strict=F.
 There are    69 symmetry adapted cartesian basis functions of A'  symmetry.
 There are    31 symmetry adapted cartesian basis functions of A"  symmetry.
 There are    64 symmetry adapted basis functions of A'  symmetry.
 There are    31 symmetry adapted basis functions of A"  symmetry.
    95 basis functions,   160 primitive gaussians,   100 cartesian basis functions
    20 alpha electrons       20 beta electrons
       nuclear repulsion energy       178.7825270621 Hartrees.
 IExCor= 1009 DFT=T Ex=PBE Corr=PBE ExCW=0 ScaHFX=  0.000000
 ScaDFX=  1.000000  1.000000  1.000000  1.000000 ScalE2=  1.000000  1.000000
 IRadAn=      0 IRanWt=     -1 IRanGd=            0 ICorTp=0 IEmpDi=  4
 NAtoms=   10 NActive=   10 NUniq=    8 SFac= 1.56D+00 NAtFMM=   60 NAOKFM=F Big=F
 Integral buffers will be    131072 words long.
 Raffenetti 2 integral format.
 Two-electron integral symmetry is turned on.
 Leave Link  301 at Fri Sep 11 12:56:45 2015, MaxMem=    33554432 cpu:         0.1
 (Enter /usr/local/research/Gaussian09/g09-revD.01/g09/l302.exe)
 NPDir=0 NMtPBC=     1 NCelOv=     1 NCel=       1 NClECP=     1 NCelD=      1
         NCelK=      1 NCelE2=     1 NClLst=     1 CellRange=     0.0.
 One-electron integrals computed using PRISM.
 One-electron integral symmetry used in STVInt
   2 Symmetry operations used in ECPInt.
 ECPInt:  NShTT=    1035 NPrTT=    3735 LenC2=    1033 LenP2D=    3183.
 LDataN:  DoStor=T MaxTD1= 4 Len=   56
 NBasis=    95 RedAO= T EigKep=  3.78D-03  NBF=    64    31
 NBsUse=    95 1.00D-06 EigRej= -1.00D+00 NBFU=    64    31
 Precomputing XC quadrature grid using
 IXCGrd= 4 IRadAn=           0 IRanWt=          -1 IRanGd=           0 AccXCQ= 0.00D+00.
 Generated NRdTot=       0 NPtTot=           0 NUsed=           0 NTot=          32
 NSgBfM=   100   100   100   100   100 MxSgAt=    10 MxSgA2=    10.
 Leave Link  302 at Fri Sep 11 12:56:46 2015, MaxMem=    33554432 cpu:         0.5
 (Enter /usr/local/research/Gaussian09/g09-revD.01/g09/l303.exe)
 DipDrv:  MaxL=1.
 Leave Link  303 at Fri Sep 11 12:56:46 2015, MaxMem=    33554432 cpu:         0.0
 (Enter /usr/local/research/Gaussian09/g09-revD.01/g09/l401.exe)
 Initial guess from the checkpoint file:  "1-ttt.chk"
 B after Tr=     0.000000    0.000000    0.000000
         Rot=    0.999611    0.000000    0.000000   -0.027887 Ang=  -3.20 deg.
 Guess basis will be translated and rotated to current coordinates.
 JPrj=2 DoOrth=T DoCkMO=T.
 Initial guess orbital symmetries:
       Occupied  (A') (A') (A') (A') (A') (A') (A') (A') (A') (A')
                 (A") (A') (A') (A") (A') (A') (A") (A") (A') (A')
       Virtual   (A') (A') (A') (A') (A') (A') (A') (A') (A') (A')
                 (A') (A') (A') (A') (A') (A') (A') (A') (A') (A')
                 (A') (A') (A') (A') (A') (A') (A') (A') (A') (A')
                 (A') (A') (A') (A') (A') (A') (A') (A') (A') (A')
                 (A') (A') (A') (A') (A') (A') (A') (A') (A") (A")
                 (A") (A") (A") (A") (A") (A") (A") (A") (A") (A")
                 (A") (A") (A") (A") (A") (A") (A") (A") (A") (A")
                 (A") (A") (A") (A") (A")
 The electronic state of the initial guess is 1-A'.
 Generating alternative initial guess.
 ExpMin= 1.22D-01 ExpMax= 2.27D+03 ExpMxC= 3.41D+02 IAcc=1 IRadAn=         1 AccDes= 0.00D+00
 Harris functional with IExCor= 1009 and IRadAn=       1 diagonalized for initial guess.
 HarFok:  IExCor= 1009 AccDes= 0.00D+00 IRadAn=         1 IDoV= 1 UseB2=F ITyADJ=14
 ICtDFT=  3500011 ScaDFX=  1.000000  1.000000  1.000000  1.000000
 FoFCou: FMM=F IPFlag=           0 FMFlag=      100000 FMFlg1=           0
         NFxFlg=           0 DoJE=T BraDBF=F KetDBF=T FulRan=T
         wScrn=  0.000000 ICntrl=     500 IOpCl=  0 I1Cent=   200000004 NGrid=           0
         NMat0=    1 NMatS0=      1 NMatT0=    0 NMatD0=    1 NMtDS0=    0 NMtDT0=    0
 Petite list used in FoFCou.
 Harris En= -283.975500709457    
 Leave Link  401 at Fri Sep 11 12:56:46 2015, MaxMem=    33554432 cpu:         0.8
 (Enter /usr/local/research/Gaussian09/g09-revD.01/g09/l502.exe)
 Closed shell SCF:
 Using DIIS extrapolation, IDIIS=  1040.
 Integral symmetry usage will be decided dynamically.
 Keep J ints in memory in symmetry-blocked form, NReq=15735152.
 IVT=       37446 IEndB=       37446 NGot=    33554432 MDV=    28218456
 LenX=    28218456 LenY=    28208015
 Requested convergence on RMS density matrix=1.00D-08 within  64 cycles.
 Requested convergence on MAX density matrix=1.00D-06.
 Requested convergence on             energy=1.00D-06.
 No special actions if energy rises.
 FoFCou: FMM=F IPFlag=           0 FMFlag=           0 FMFlg1=           0
         NFxFlg=           0 DoJE=F BraDBF=F KetDBF=F FulRan=T
         wScrn=  0.000000 ICntrl=     600 IOpCl=  0 I1Cent=           0 NGrid=           0
         NMat0=    1 NMatS0=   4560 NMatT0=    0 NMatD0=    1 NMtDS0=    0 NMtDT0=    0
 Petite list used in FoFCou.
 Integral accuracy reduced to 1.0D-05 until final iterations.

 Cycle   1  Pass 0  IDiag  1:
 E= -283.898199022395    
 DIIS: error= 5.27D-03 at cycle   1 NSaved=   1.
 NSaved= 1 IEnMin= 1 EnMin= -283.898199022395     IErMin= 1 ErrMin= 5.27D-03
 ErrMax= 5.27D-03  0.00D+00 EMaxC= 1.00D-01 BMatC= 3.75D-03 BMatP= 3.75D-03
 IDIUse=3 WtCom= 9.47D-01 WtEn= 5.27D-02
 Coeff-Com:  0.100D+01
 Coeff-En:   0.100D+01
 Coeff:      0.100D+01
 Gap=     0.582 Goal=   None    Shift=    0.000
 GapD=    0.582 DampG=2.000 DampE=1.000 DampFc=2.0000 IDamp=-1.
 RMSDP=1.29D-03 MaxDP=1.78D-02              OVMax= 2.63D-02

 Cycle   2  Pass 0  IDiag  1:
 E= -283.902402580021     Delta-E=       -0.004203557626 Rises=F Damp=F
 DIIS: error= 2.09D-03 at cycle   2 NSaved=   2.
 NSaved= 2 IEnMin= 2 EnMin= -283.902402580021     IErMin= 2 ErrMin= 2.09D-03
 ErrMax= 2.09D-03  0.00D+00 EMaxC= 1.00D-01 BMatC= 5.13D-04 BMatP= 3.75D-03
 IDIUse=3 WtCom= 9.79D-01 WtEn= 2.09D-02
 Coeff-Com:  0.153D+00 0.847D+00
 Coeff-En:   0.000D+00 0.100D+01
 Coeff:      0.150D+00 0.850D+00
 Gap=     0.172 Goal=   None    Shift=    0.000
 RMSDP=6.40D-04 MaxDP=1.52D-02 DE=-4.20D-03 OVMax= 2.83D-02

 Cycle   3  Pass 0  IDiag  1:
 E= -283.901088871710     Delta-E=        0.001313708311 Rises=F Damp=F
 DIIS: error= 5.37D-03 at cycle   3 NSaved=   3.
 NSaved= 3 IEnMin= 2 EnMin= -283.902402580021     IErMin= 2 ErrMin= 2.09D-03
 ErrMax= 5.37D-03  0.00D+00 EMaxC= 1.00D-01 BMatC= 2.16D-03 BMatP= 5.13D-04
 IDIUse=3 WtCom= 1.20D-01 WtEn= 8.80D-01
 Coeff-Com:  0.229D-01 0.667D+00 0.310D+00
 Coeff-En:   0.000D+00 0.741D+00 0.259D+00
 Coeff:      0.275D-02 0.732D+00 0.265D+00
 Gap=     0.169 Goal=   None    Shift=    0.000
 RMSDP=3.65D-04 MaxDP=9.30D-03 DE= 1.31D-03 OVMax= 1.71D-02

 Cycle   4  Pass 0  IDiag  1:
 E= -283.902767840905     Delta-E=       -0.001678969195 Rises=F Damp=F
 DIIS: error= 6.55D-04 at cycle   4 NSaved=   4.
 NSaved= 4 IEnMin= 4 EnMin= -283.902767840905     IErMin= 4 ErrMin= 6.55D-04
 ErrMax= 6.55D-04  0.00D+00 EMaxC= 1.00D-01 BMatC= 7.87D-05 BMatP= 5.13D-04
 IDIUse=3 WtCom= 9.93D-01 WtEn= 6.55D-03
 Coeff-Com:  0.509D-03 0.374D+00 0.102D+00 0.523D+00
 Coeff-En:   0.000D+00 0.151D+00 0.000D+00 0.849D+00
 Coeff:      0.505D-03 0.373D+00 0.101D+00 0.526D+00
 Gap=     0.166 Goal=   None    Shift=    0.000
 RMSDP=1.10D-04 MaxDP=2.53D-03 DE=-1.68D-03 OVMax= 2.22D-03

 Cycle   5  Pass 0  IDiag  1:
 E= -283.902836094768     Delta-E=       -0.000068253863 Rises=F Damp=F
 DIIS: error= 1.95D-04 at cycle   5 NSaved=   5.
 NSaved= 5 IEnMin= 5 EnMin= -283.902836094768     IErMin= 5 ErrMin= 1.95D-04
 ErrMax= 1.95D-04  0.00D+00 EMaxC= 1.00D-01 BMatC= 4.18D-06 BMatP= 7.87D-05
 IDIUse=3 WtCom= 9.98D-01 WtEn= 1.95D-03
 Coeff-Com:  0.169D-04 0.176D+00 0.383D-01 0.314D+00 0.471D+00
 Coeff-En:   0.000D+00 0.000D+00 0.000D+00 0.000D+00 0.100D+01
 Coeff:      0.169D-04 0.176D+00 0.382D-01 0.314D+00 0.472D+00
 Gap=     0.167 Goal=   None    Shift=    0.000
[...]
        13         0.0000      0.0000     -0.3009
        14         0.1861     -0.0246      0.0000
        15        -0.4144      1.1407      0.0000
        16         0.8340      0.0639      0.0000
        17        -0.1747      0.1436      0.0000
        18         0.1654     -0.1196      0.0000
        19        -0.0877     -0.0782      0.0000
        20        -0.4457     -0.9561      0.0000
        21         0.0000      0.0000     -0.0612
        22        -0.2009      0.3129      0.0000
        23         0.0000      0.0000     -0.6491
        24         0.0000      0.0000     -0.2209
 Ground to excited state transition velocity quadrupole moments (Au):
       state          XX          YY          ZZ          XY          XZ          YZ
         1         0.0000      0.0000      0.0000      0.0000     -0.0738      0.0404
         2         0.0000      0.0000      0.0000      0.0000     -0.0189     -0.0453
         3        -0.1690      0.4558     -0.0335      0.0278      0.0000      0.0000
         4         0.3234     -0.6377      0.1078     -0.1258      0.0000      0.0000
         5        -0.0156      0.3459     -0.0056     -0.0082      0.0000      0.0000
         6         0.1120      0.1770      0.0323      0.0408      0.0000      0.0000
         7        -0.0200      0.3380      0.0579      0.2407      0.0000      0.0000
         8         0.0000      0.0000      0.0000      0.0000      0.0094     -0.1058
         9        -0.2373      0.4370     -0.1490     -0.5523      0.0000      0.0000
        10         0.0000      0.0000      0.0000      0.0000     -0.2291      0.2750
        11        -0.0097      0.2081      0.0028      0.0714      0.0000      0.0000
        12         0.0000      0.0000      0.0000      0.0000     -0.0072     -0.1428
        13        -0.0556     -0.4640     -0.1447      0.2920      0.0000      0.0000
        14         0.0000      0.0000      0.0000      0.0000     -0.0008      0.1422
        15         0.0000      0.0000      0.0000      0.0000     -0.2812     -0.0997
        16         0.0000      0.0000      0.0000      0.0000     -0.3688      0.2045
        17         0.0000      0.0000      0.0000      0.0000     -0.2436     -0.2494
        18         0.0000      0.0000      0.0000      0.0000     -0.0838     -0.1225
        19         0.0000      0.0000      0.0000      0.0000      0.0640      0.0457
        20         0.0000      0.0000      0.0000      0.0000      0.7044     -0.1395
        21        -0.0746      0.1961     -0.0299     -0.2319      0.0000      0.0000
        22         0.0000      0.0000      0.0000      0.0000     -0.1965     -0.0967
        23        -0.3981      0.5874     -0.0828      0.1572      0.0000      0.0000
        24        -0.0938      0.5468      0.0068     -0.0779      0.0000      0.0000
 <0|del|b> * <b|rxdel|0> + <0|del|b> * <b|delr+rdel|0>
 Rotatory Strengths (R) in cgs (10**-40 erg-esu-cm/Gauss)
       state          XX          YY          ZZ    R(velocity)    E-M Angle
         1         0.0000      0.0000      0.0000      0.0000       90.00
         2         0.0000      0.0000      0.0000      0.0000       90.00
         3         0.0000      0.0000      0.0000      0.0000       90.00
         4         0.0000      0.0000      0.0000      0.0000       90.00
         5         0.0000      0.0000      0.0000      0.0000       90.00
         6         0.0000      0.0000      0.0000      0.0000       90.00
         7         0.0000      0.0000      0.0000      0.0000       90.00
         8         0.0000      0.0000      0.0000      0.0000       90.00
         9         0.0000      0.0000      0.0000      0.0000       90.00
        10         0.0000      0.0000      0.0000      0.0000       90.00
        11         0.0000      0.0000      0.0000      0.0000       90.00
        12         0.0000      0.0000      0.0000      0.0000       90.00
        13         0.0000      0.0000      0.0000      0.0000       90.00
        14         0.0000      0.0000      0.0000      0.0000       90.00
        15         0.0000      0.0000      0.0000      0.0000       90.00
        16         0.0000      0.0000      0.0000      0.0000       90.00
        17         0.0000      0.0000      0.0000      0.0000       90.00
        18         0.0000      0.0000      0.0000      0.0000       90.00
        19         0.0000      0.0000      0.0000      0.0000       90.00
        20         0.0000      0.0000      0.0000      0.0000       90.00
        21         0.0000      0.0000      0.0000      0.0000       90.00
        22         0.0000      0.0000      0.0000      0.0000       90.00
        23         0.0000      0.0000      0.0000      0.0000       90.00
        24         0.0000      0.0000      0.0000      0.0000       90.00
 1/2[<0|r|b>*<b|rxdel|0> + (<0|rxdel|b>*<b|r|0>)*]
 Rotatory Strengths (R) in cgs (10**-40 erg-esu-cm/Gauss)
       state          XX          YY          ZZ     R(length)
         1         0.0000      0.0000      0.0000      0.0000
         2         0.0000      0.0000      0.0000      0.0000
         3         0.0000      0.0000      0.0000      0.0000
         4         0.0000      0.0000      0.0000      0.0000
         5         0.0000      0.0000      0.0000      0.0000
         6         0.0000      0.0000      0.0000      0.0000
         7         0.0000      0.0000      0.0000      0.0000
         8         0.0000      0.0000      0.0000      0.0000
         9         0.0000      0.0000      0.0000      0.0000
        10         0.0000      0.0000      0.0000      0.0000
        11         0.0000      0.0000      0.0000      0.0000
        12         0.0000      0.0000      0.0000      0.0000
        13         0.0000      0.0000      0.0000      0.0000
        14         0.0000      0.0000      0.0000      0.0000
        15         0.0000      0.0000      0.0000      0.0000
        16         0.0000      0.0000      0.0000      0.0000
        17         0.0000      0.0000      0.0000      0.0000
        18         0.0000      0.0000      0.0000      0.0000
        19         0.0000      0.0000      0.0000      0.0000
        20         0.0000      0.0000      0.0000      0.0000
        21         0.0000      0.0000      0.0000      0.0000
        22         0.0000      0.0000      0.0000      0.0000
        23         0.0000      0.0000      0.0000      0.0000
        24         0.0000      0.0000      0.0000      0.0000
  1/2[<0|del|b>*<b|r|0> + (<0|r|b>*<b|del|0>)*] (Au)
       state          X           Y           Z        Dip. S.   Osc.(frdel)
         1         0.0000      0.0000     -0.0012      0.0012      0.0008
         2         0.0000      0.0000     -0.0014      0.0014      0.0009
         3        -0.0007     -0.0407      0.0000      0.0414      0.0276
         4        -0.0028     -0.0220      0.0000      0.0247      0.0165
         5        -0.0009     -0.0663      0.0000      0.0672      0.0448
         6        -0.0110     -0.0337      0.0000      0.0447      0.0298
         7        -0.0366      0.0007      0.0000      0.0359      0.0239
         8         0.0000      0.0000     -0.0206      0.0206      0.0137
         9        -0.0015     -0.1024      0.0000      0.1038      0.0692
        10         0.0000      0.0000     -0.0049      0.0049      0.0032
        11        -0.0107     -0.0181      0.0000      0.0287      0.0192
        12         0.0000      0.0000     -0.0031      0.0031      0.0021
        13        -0.1668     -0.0053      0.0000      0.1721      0.1147
        14         0.0000      0.0000     -0.0036      0.0036      0.0024
        15         0.0000      0.0000     -0.0022      0.0022      0.0015
        16         0.0000      0.0000     -0.0085      0.0085      0.0057
        17         0.0000      0.0000      0.0000      0.0000      0.0000
        18         0.0000      0.0000     -0.0009      0.0009      0.0006
        19         0.0000      0.0000     -0.0016      0.0016      0.0011
        20         0.0000      0.0000     -0.0005      0.0005      0.0003
        21        -0.0013     -0.0054      0.0000      0.0067      0.0045
        22         0.0000      0.0000     -0.0005      0.0005      0.0003
        23        -0.0313     -0.0711      0.0000      0.1024      0.0683
        24        -0.0012     -0.0202      0.0000      0.0214      0.0143

 Excitation energies and oscillator strengths:
 
 Excited State   1:      Singlet-A"     4.7389 eV  261.63 nm  f=0.0008  <S**2>=0.000
      20 -> 21         0.70535
 This state for optimization and/or second-order correction.
 Total Energy, E(TD-HF/TD-KS) =  -283.729610428    
 Copying the excited state density for this state as the 1-particle RhoCI density.
 
 Excited State   2:      Singlet-A"     5.7661 eV  215.02 nm  f=0.0006  <S**2>=0.000
      19 -> 21         0.70569
 
 Excited State   3:      Singlet-A'     6.2911 eV  197.08 nm  f=0.0293  <S**2>=0.000
      20 -> 22         0.70516
 
 Excited State   4:      Singlet-A'     6.7168 eV  184.59 nm  f=0.0082  <S**2>=0.000
      20 -> 23         0.70344
 
 Excited State   5:      Singlet-A'     7.2193 eV  171.74 nm  f=0.0415  <S**2>=0.000
      18 -> 21         0.17143
      19 -> 22         0.68378
 
 Excited State   6:      Singlet-A'     7.5762 eV  163.65 nm  f=0.0281  <S**2>=0.000
      18 -> 21         0.18313
      19 -> 23         0.67297
 
 Excited State   7:      Singlet-A'     7.7144 eV  160.72 nm  f=0.0199  <S**2>=0.000
      20 -> 24         0.69856
 
 Excited State   8:      Singlet-A"     7.8466 eV  158.01 nm  f=0.0137  <S**2>=0.000
      20 -> 25         0.70447
 
 Excited State   9:      Singlet-A'     8.2438 eV  150.40 nm  f=0.0758  <S**2>=0.000
      17 -> 21         0.55369
      18 -> 21        -0.38190
      19 -> 22         0.11488
      19 -> 24        -0.10633
 
 Excited State  10:      Singlet-A"     8.4646 eV  146.47 nm  f=0.0013  <S**2>=0.000
      18 -> 22         0.69789
 
 Excited State  11:      Singlet-A'     8.5493 eV  145.02 nm  f=0.0227  <S**2>=0.000
      19 -> 24         0.69786
 
 Excited State  12:      Singlet-A"     8.6874 eV  142.72 nm  f=0.0024  <S**2>=0.000
      18 -> 23        -0.11486
      19 -> 25         0.69259
 
 Excited State  13:      Singlet-A'     8.6889 eV  142.69 nm  f=0.1281  <S**2>=0.000
      14 -> 21         0.17398
      17 -> 21         0.39690
      18 -> 21         0.47268
      18 -> 25         0.12689
      19 -> 22        -0.11100
      19 -> 23        -0.17887
 
 Excited State  14:      Singlet-A"     8.7346 eV  141.95 nm  f=0.0016  <S**2>=0.000
      18 -> 23         0.68835
      19 -> 25         0.11933
 
 Excited State  15:      Singlet-A"     8.8523 eV  140.06 nm  f=0.0014  <S**2>=0.000
      16 -> 21         0.69533
 
 Excited State  16:      Singlet-A"     9.3724 eV  132.29 nm  f=0.0049  <S**2>=0.000
      20 -> 26         0.70196
 
 Excited State  17:      Singlet-A"     9.5673 eV  129.59 nm  f=0.0000  <S**2>=0.000
      17 -> 22         0.70250
 
 Excited State  18:      Singlet-A"     9.6345 eV  128.69 nm  f=0.0007  <S**2>=0.000
      15 -> 21         0.69672
 
 Excited State  19:      Singlet-A"     9.7240 eV  127.50 nm  f=0.0025  <S**2>=0.000
      18 -> 24         0.70283
 
 Excited State  20:      Singlet-A"     9.9686 eV  124.37 nm  f=0.0002  <S**2>=0.000
      17 -> 23         0.69970
 
 Excited State  21:      Singlet-A'     9.9884 eV  124.13 nm  f=0.0042  <S**2>=0.000
      18 -> 21        -0.10841
      18 -> 25         0.68486
 
 Excited State  22:      Singlet-A"    10.1167 eV  122.55 nm  f=0.0001  <S**2>=0.000
      19 -> 26         0.70309
 
 Excited State  23:      Singlet-A'    10.3008 eV  120.36 nm  f=0.0585  <S**2>=0.000
      16 -> 22         0.68733
      16 -> 23        -0.12796
 
 Excited State  24:      Singlet-A'    10.5532 eV  117.49 nm  f=0.0142  <S**2>=0.000
      14 -> 21        -0.12876
      16 -> 22         0.11089
      16 -> 23         0.64457
      20 -> 27         0.19981
 SavETr:  write IOETrn=   770 NScale= 10 NData=  16 NLR=1 NState=   24 LETran=     442.
 Leave Link  914 at Fri Sep 11 13:02:40 2015, MaxMem=    33554432 cpu:       108.9
 (Enter /usr/local/research/Gaussian09/g09-revD.01/g09/l601.exe)
 Copying SCF densities to generalized density rwf, IOpCl= 0 IROHF=0.

 **********************************************************************

            Population analysis using the SCF density.

 **********************************************************************

 Orbital symmetries:
       Occupied  (A') (A') (A') (A') (A') (A') (A') (A') (A') (A')
                 (A") (A') (A') (A") (A') (A') (A") (A") (A') (A')
       Virtual   (A") (A') (A') (A') (A") (A") (A') (A') (A') (A')
                 (A") (A') (A') (A") (A') (A') (A') (A') (A') (A")
                 (A') (A") (A') (A') (A") (A') (A") (A') (A') (A')
                 (A") (A') (A') (A") (A') (A") (A") (A') (A') (A")
                 (A") (A') (A') (A") (A') (A") (A') (A') (A") (A')
                 (A') (A") (A') (A') (A") (A') (A') (A') (A") (A')
                 (A") (A') (A') (A") (A') (A") (A") (A') (A") (A')
                 (A') (A") (A') (A') (A')
 The electronic state is 1-A'.
 Alpha  occ. eigenvalues --  -18.80743 -18.75064 -13.98091 -10.01515  -9.93662
 Alpha  occ. eigenvalues --   -1.00362  -0.91641  -0.80171  -0.64339  -0.53968
 Alpha  occ. eigenvalues --   -0.45357  -0.44387  -0.42268  -0.39316  -0.38251
 Alpha  occ. eigenvalues --   -0.34572  -0.32297  -0.28021  -0.23567  -0.20222
 Alpha virt. eigenvalues --   -0.03137   0.02697   0.03973   0.07699   0.08315
 Alpha virt. eigenvalues --    0.13534   0.18271   0.18363   0.24848   0.30748
 Alpha virt. eigenvalues --    0.40600   0.41003   0.43027   0.47071   0.48875
 Alpha virt. eigenvalues --    0.52061   0.54900   0.59353   0.60078   0.60376
 Alpha virt. eigenvalues --    0.61912   0.62855   0.71380   0.77282   0.81275
 Alpha virt. eigenvalues --    0.83094   0.89880   0.90255   0.93099   1.02002
 Alpha virt. eigenvalues --    1.02387   1.12699   1.14523   1.17774   1.25453
 Alpha virt. eigenvalues --    1.31813   1.33875   1.34237   1.45391   1.49296
 Alpha virt. eigenvalues --    1.56261   1.62225   1.64543   1.68702   1.73566
 Alpha virt. eigenvalues --    1.76038   1.77768   1.78981   1.80045   1.91354
 Alpha virt. eigenvalues --    1.96837   1.97579   2.04811   2.08272   2.16637
 Alpha virt. eigenvalues --    2.23327   2.31329   2.38764   2.53133   2.55964
 Alpha virt. eigenvalues --    2.59301   2.61550   2.70649   2.78288   2.79981
 Alpha virt. eigenvalues --    2.81613   2.90842   2.99937   3.09001   3.10549
 Alpha virt. eigenvalues --    3.11716   3.29318   3.37828   3.51856   3.65109
          Condensed to atoms (all electrons):
               1          2          3          4          5          6
     1  N    6.124557   0.420748   0.365144   0.365144  -0.041764  -0.020165
     2  C    0.420748   5.019989  -0.058018  -0.058018   0.178592   0.335972
     3  H    0.365144  -0.058018   0.614514  -0.033089   0.000929   0.010641
     4  H    0.365144  -0.058018  -0.033089   0.614514   0.000929  -0.008066
     5  C   -0.041764   0.178592   0.000929   0.000929   4.828502  -0.016870
     6  H   -0.020165   0.335972   0.010641  -0.008066  -0.016870   0.646867
     7  H   -0.020165   0.335972  -0.008066   0.010641  -0.016870  -0.012173
     8  O   -0.003332  -0.115224   0.007638   0.007638   0.710123   0.001437
     9  O    0.002455  -0.108679   0.000448   0.000448   0.328246   0.009183
    10  H   -0.000453   0.016606  -0.000093  -0.000093  -0.001719  -0.001239
               7          8          9         10
     1  N   -0.020165  -0.003332   0.002455  -0.000453
     2  C    0.335972  -0.115224  -0.108679   0.016606
     3  H   -0.008066   0.007638   0.000448  -0.000093
     4  H    0.010641   0.007638   0.000448  -0.000093
     5  C   -0.016870   0.710123   0.328246  -0.001719
     6  H   -0.012173   0.001437   0.009183  -0.001239
     7  H    0.646867   0.001437   0.009183  -0.001239
     8  O    0.001437   7.658268  -0.082773   0.012791
     9  O    0.009183  -0.082773   7.716062   0.281329
    10  H   -0.001239   0.012791   0.281329   0.518723
 Mulliken charges:
               1
     1  N   -0.192168
     2  C    0.032059
     3  H    0.099952
     4  H    0.099952
     5  C    0.029901
     6  H    0.054411
     7  H    0.054411
     8  O   -0.198003
     9  O   -0.155902
    10  H    0.175386
 Sum of Mulliken charges =   0.00000
 Mulliken charges with hydrogens summed into heavy atoms:
               1
     1  N    0.007736
     2  C    0.140882
     5  C    0.029901
     8  O   -0.198003
     9  O    0.019484
 Electronic spatial extent (au):  <R**2>=            422.6392
 Charge=              0.0000 electrons
 Dipole moment (field-independent basis, Debye):
    X=             -0.6573    Y=              1.0369    Z=              0.0000  Tot=              1.2277
 Quadrupole moment (field-independent basis, Debye-Ang):
   XX=            -31.8950   YY=            -29.3387   ZZ=            -27.2371
   XY=             -2.4710   XZ=              0.0000   YZ=              0.0000
 Traceless Quadrupole moment (field-independent basis, Debye-Ang):
   XX=             -2.4047   YY=              0.1516   ZZ=              2.2531
   XY=             -2.4710   XZ=              0.0000   YZ=              0.0000
 Octapole moment (field-independent basis, Debye-Ang**2):
  XXX=              1.1700  YYY=             38.9447  ZZZ=              0.0000  XYY=              1.9644
  XXY=             -6.5570  XXZ=              0.0000  XZZ=              1.4462  YZZ=             -0.7076
  YYZ=              0.0000  XYZ=              0.0000
 Hexadecapole moment (field-independent basis, Debye-Ang**3):
 XXXX=           -143.3705 YYYY=           -325.1701 ZZZZ=            -34.2480 XXXY=             13.0290
 XXXZ=              0.0000 YYYX=              2.3951 YYYZ=              0.0000 ZZZX=              0.0000
 ZZZY=              0.0000 XXYY=            -75.9421 XXZZ=            -26.4286 YYZZ=            -55.5884
 XXYZ=              0.0000 YYXZ=              0.0000 ZZXY=              3.6739
 N-N= 1.782853636322D+02 E-N=-1.022155836625D+03  KE= 2.815584442208D+02
 Symmetry A'   KE= 2.685551139005D+02
 Symmetry A"   KE= 1.300333032027D+01
 Leave Link  601 at Fri Sep 11 13:02:40 2015, MaxMem=    33554432 cpu:         0.1
 (Enter /usr/local/research/Gaussian09/g09-revD.01/g09/l9999.exe)
 1\1\GINC-HEISENBERG\SP\RPBEPBE TD-FC\def2SVP\C2H5N1O2\LEIN\11-Sep-2015
 \0\\#p td=(nstates=24) pbepbe def2svp geom=allcheck guess=read\\-- Gly
 cine conformers --\\0,1\N,0,-0.084203663,-1.9784936413,0.\C,0,-0.77889
 64115,-0.7092184711,0.\H,0,0.5487496022,-2.0094958151,0.8106780276\H,0
 ,0.5487496022,-2.0094958151,-0.8106780276\C,0,0.1177754411,0.528094148
 5,0.\H,0,-1.4556182563,-0.6313647285,-0.879754692\H,0,-1.4556182563,-0
 .6313647285,0.879754692\O,0,1.3341821003,0.5046354247,0.\O,0,-0.602525
 9516,1.6780777091,0.\H,0,0.0576608727,2.4055395179,0.\\Version=EM64L-G
 09RevD.01\State=1-A'\HF=-283.9037617\RMSD=6.195e-09\PG=CS [SG(C2H1N1O2
 ),X(H4)]\\@


 I MET A TRAVELLER FROM AN ANTIQUE LAND
 WHO SAID... TWO VAST AND TRUNKLESS LEGS OF STONE
 STAND IN THE DESERT..... NEAR THEM,  ON THE SAND,
 HALF SUNK,  A SHATTERED VISAGE LIES,  WHOSE FROWN,
 AND WRINKLED LIP,  AND SNEER OF COLD COMMAND
 TELL THAT ITS SCULPTOR WELL THOSE PASSIONS READ
 WHICH YET SURVIVE,  STAMPED ON THESE LIFELESS THINGS
 THE HAND THAT MOCKED THEM,  AND THE HEART THAT FED-
 AND ON THE PEDESTAL THESE WORDS APPEAR 
 MY NAME IS OZYMANDIAS, KING OF KINGS--   
 LOOK ON MY WORKS YE MIGHTY AND DESPAIR. 
 NOTHING BESIDE REMAINS,  ROUND THE DECAY 
 OF THAT COLOSSAL WRECK,  BOUNDLESS AND BARE
 THE LONE AND LEVEL SANDS STRETCH FAR AWAY.
                                    SHELLEY
 Job cpu time:       0 days  0 hours  1 minutes 55.2 seconds.
 File lengths (MBytes):  RWF=     46 Int=      0 D2E=      0 Chk=      9 Scr=      1
 Normal termination of Gaussian 09 at Fri Sep 11 13:02:40 2015.
