 Entering Gaussian System, Link 0=g09
 Initial command:
 /usr/local/research/Gaussian09/g09-revD.01/g09/l1.exe "/scratch/lein/Gau-1943.inp" -scrdir="/scratch/lein/"
 Entering Link 1 = /usr/local/research/Gaussian09/g09-revD.01/g09/l1.exe PID=      1946.
  
 Copyright (c) 1988,1990,1992,1993,1995,1998,2003,2009,2013,
            Gaussian, Inc.  All Rights Reserved.
  
 This is part of the Gaussian(R) 09 program.  It is based on
 the Gaussian(R) 03 system (copyright 2003, Gaussian, Inc.),
 the Gaussian(R) 98 system (copyright 1998, Gaussian, Inc.),
 the Gaussian(R) 94 system (copyright 1995, Gaussian, Inc.),
 the Gaussian 92(TM) system (copyright 1992, Gaussian, Inc.),
 the Gaussian 90(TM) system (copyright 1990, Gaussian, Inc.),
 the Gaussian 88(TM) system (copyright 1988, Gaussian, Inc.),
 the Gaussian 86(TM) system (copyright 1986, Carnegie Mellon
 University), and the Gaussian 82(TM) system (copyright 1983,
 Carnegie Mellon University). Gaussian is a federally registered
 trademark of Gaussian, Inc.
  
 This software contains proprietary and confidential information,
 including trade secrets, belonging to Gaussian, Inc.
  
 This software is provided under written license and may be
 used, copied, transmitted, or stored only in accord with that
 written license.
  
 The following legend is applicable only to US Government
 contracts under FAR:
  
                    RESTRICTED RIGHTS LEGEND
  
 Use, reproduction and disclosure by the US Government is
 subject to restrictions as set forth in subparagraphs (a)
 and (c) of the Commercial Computer Software - Restricted
 Rights clause in FAR 52.227-19.
  
 Gaussian, Inc.
 340 Quinnipiac St., Bldg. 40, Wallingford CT 06492
  
  
 ---------------------------------------------------------------
 Warning -- This program may not be used in any manner that
 competes with the business of Gaussian, Inc. or will provide
 assistance to any competitor of Gaussian, Inc.  The licensee
 of this program is prohibited from giving any competitor of
 Gaussian, Inc. access to this program.  By using this program,
 the user acknowledges that Gaussian, Inc. is engaged in the
 business of creating and licensing software in the field of
 computational chemistry and represents and warrants to the
 licensee that it is not a competitor of Gaussian, Inc. and that
 it will not use this program in any manner prohibited above.
 ---------------------------------------------------------------
  

 Cite this work as:
 Gaussian 09, Revision D.01,
 M. J. Frisch, G. W. Trucks, H. B. Schlegel, G. E. Scuseria, 
 M. A. Robb, J. R. Cheeseman, G. Scalmani, V. Barone, B. Mennucci, 
 G. A. Petersson, H. Nakatsuji, M. Caricato, X. Li, H. P. Hratchian, 
 A. F. Izmaylov, J. Bloino, G. Zheng, J. L. Sonnenberg, M. Hada, 
 M. Ehara, K. Toyota, R. Fukuda, J. Hasegawa, M. Ishida, T. Nakajima, 
 Y. Honda, O. Kitao, H. Nakai, T. Vreven, J. A. Montgomery, Jr., 
 J. E. Peralta, F. Ogliaro, M. Bearpark, J. J. Heyd, E. Brothers, 
 K. N. Kudin, V. N. Staroverov, T. Keith, R. Kobayashi, J. Normand, 
 K. Raghavachari, A. Rendell, J. C. Burant, S. S. Iyengar, J. Tomasi, 
 M. Cossi, N. Rega, J. M. Millam, M. Klene, J. E. Knox, J. B. Cross, 
 V. Bakken, C. Adamo, J. Jaramillo, R. Gomperts, R. E. Stratmann, 
 O. Yazyev, A. J. Austin, R. Cammi, C. Pomelli, J. W. Ochterski, 
 R. L. Martin, K. Morokuma, V. G. Zakrzewski, G. A. Voth, 
 P. Salvador, J. J. Dannenberg, S. Dapprich, A. D. Daniels, 
 O. Farkas, J. B. Foresman, J. V. Ortiz, J. Cioslowski, 
 and D. J. Fox, Gaussian, Inc., Wallingford CT, 2013.
 
 ******************************************
 Gaussian 09:  EM64L-G09RevD.01 24-Apr-2013
                11-Sep-2015 
 ******************************************
 %chk=2-ccc.chk
 ----------------------------------
 #p opt freq pbepbe def2svp scf=xqc
 ----------------------------------
 1/14=-1,18=20,19=15,26=3,38=1/1,3;
 2/9=110,12=2,17=6,18=5,40=1/2;
 3/5=43,7=101,11=2,16=1,25=1,30=1,71=1,74=1009/1,2,3;
 4//1;
 5/5=2,8=3,13=1,38=5/2,8;
 6/7=2,8=2,9=2,10=2,28=1/1;
 7//1,2,3,16;
 1/14=-1,18=20,19=15,26=3/3(2);
 2/9=110/2;
 99//99;
 2/9=110/2;
 3/5=43,7=101,11=2,16=1,25=1,30=1,71=1,74=1009/1,2,3;
 4/5=5,16=3,69=1/1;
 5/5=2,8=3,13=1,38=5/2,8;
 7//1,2,3,16;
 1/14=-1,18=20,19=15,26=3/3(-5);
 2/9=110/2;
 6/7=2,8=2,9=2,10=2,19=2,28=1/1;
 99/9=1/99;
 Leave Link    1 at Fri Sep 11 13:02:40 2015, MaxMem=           0 cpu:         0.0
 (Enter /usr/local/research/Gaussian09/g09-revD.01/g09/l101.exe)
 ------------------------
 -- Glycine conformers --
 ------------------------
 Symbolic Z-matrix:
 Charge =  0 Multiplicity = 1
 N                     0.17002  -1.7885    0. 
 C                    -0.78851  -0.70186   0. 
 H                     0.03504  -2.26046  -0.87538 
 H                     0.03504  -2.26046   0.87538 
 C                    -0.06969   0.63967   0. 
 H                    -1.4156   -0.76439  -0.89627 
 H                    -1.4156   -0.76439   0.89627 
 O                    -0.73311   1.70897   0. 
 O                     1.35957   0.68499   0. 
 H                     1.70853  -0.20932   0. 
 
 NAtoms=     10 NQM=       10 NQMF=       0 NMMI=      0 NMMIF=      0
                NMic=       0 NMicF=      0.
                    Isotopes and Nuclear Properties:
 (Nuclear quadrupole moments (NQMom) in fm**2, nuclear magnetic moments (NMagM)
  in nuclear magnetons)

  Atom         1           2           3           4           5           6           7           8           9          10
 IAtWgt=          14          12           1           1          12           1           1          16          16           1
 AtmWgt=  14.0030740  12.0000000   1.0078250   1.0078250  12.0000000   1.0078250   1.0078250  15.9949146  15.9949146   1.0078250
 NucSpn=           2           0           1           1           0           1           1           0           0           1
 AtZEff=   0.0000000   0.0000000   0.0000000   0.0000000   0.0000000   0.0000000   0.0000000   0.0000000   0.0000000   0.0000000
 NQMom=    2.0440000   0.0000000   0.0000000   0.0000000   0.0000000   0.0000000   0.0000000   0.0000000   0.0000000   0.0000000
 NMagM=    0.4037610   0.0000000   2.7928460   2.7928460   0.0000000   2.7928460   2.7928460   0.0000000   0.0000000   2.7928460
 AtZNuc=   7.0000000   6.0000000   1.0000000   1.0000000   6.0000000   1.0000000   1.0000000   8.0000000   8.0000000   1.0000000
 Leave Link  101 at Fri Sep 11 13:02:40 2015, MaxMem=    33554432 cpu:         0.2
 (Enter /usr/local/research/Gaussian09/g09-revD.01/g09/l103.exe)

 GradGradGradGradGradGradGradGradGradGradGradGradGradGradGradGradGradGrad
 Berny optimization.
 Initialization pass.
                           ----------------------------
                           !    Initial Parameters    !
                           ! (Angstroms and Degrees)  !
 --------------------------                            --------------------------
 ! Name  Definition              Value          Derivative Info.                !
 --------------------------------------------------------------------------------
 ! R1    R(1,2)                  1.449          estimate D2E/DX2                !
 ! R2    R(1,3)                  1.0036         estimate D2E/DX2                !
 ! R3    R(1,4)                  1.0036         estimate D2E/DX2                !
 ! R4    R(2,5)                  1.522          estimate D2E/DX2                !
 ! R5    R(2,6)                  1.0956         estimate D2E/DX2                !
 ! R6    R(2,7)                  1.0956         estimate D2E/DX2                !
 ! R7    R(5,8)                  1.2584         estimate D2E/DX2                !
 ! R8    R(5,9)                  1.43           estimate D2E/DX2                !
 ! R9    R(9,10)                 0.96           estimate D2E/DX2                !
 ! A1    A(2,1,3)              105.2887         estimate D2E/DX2                !
 ! A2    A(2,1,4)              105.2887         estimate D2E/DX2                !
 ! A3    A(3,1,4)              121.4359         estimate D2E/DX2                !
 ! A4    A(1,2,5)              110.4006         estimate D2E/DX2                !
 ! A5    A(1,2,6)              109.6223         estimate D2E/DX2                !
 ! A6    A(1,2,7)              109.6223         estimate D2E/DX2                !
 ! A7    A(5,2,6)              108.7004         estimate D2E/DX2                !
 ! A8    A(5,2,7)              108.7004         estimate D2E/DX2                !
 ! A9    A(6,2,7)              109.7754         estimate D2E/DX2                !
 ! A10   A(2,5,8)              119.9999         estimate D2E/DX2                !
 ! A11   A(2,5,9)              119.9997         estimate D2E/DX2                !
 ! A12   A(8,5,9)              120.0003         estimate D2E/DX2                !
 ! A13   A(5,9,10)             109.4993         estimate D2E/DX2                !
 ! D1    D(3,1,2,5)           -115.2811         estimate D2E/DX2                !
 ! D2    D(3,1,2,6)              4.4387         estimate D2E/DX2                !
 ! D3    D(3,1,2,7)            124.9991         estimate D2E/DX2                !
 ! D4    D(4,1,2,5)            115.2811         estimate D2E/DX2                !
 ! D5    D(4,1,2,6)           -124.9991         estimate D2E/DX2                !
 ! D6    D(4,1,2,7)             -4.4387         estimate D2E/DX2                !
 ! D7    D(1,2,5,8)            180.0            estimate D2E/DX2                !
 ! D8    D(1,2,5,9)              0.0            estimate D2E/DX2                !
 ! D9    D(6,2,5,8)             59.7253         estimate D2E/DX2                !
 ! D10   D(6,2,5,9)           -120.2747         estimate D2E/DX2                !
 ! D11   D(7,2,5,8)            -59.7253         estimate D2E/DX2                !
 ! D12   D(7,2,5,9)            120.2747         estimate D2E/DX2                !
 ! D13   D(2,5,9,10)             0.0            estimate D2E/DX2                !
 ! D14   D(8,5,9,10)           180.0            estimate D2E/DX2                !
 --------------------------------------------------------------------------------
 Trust Radius=3.00D-01 FncErr=1.00D-07 GrdErr=1.00D-06
 Number of steps in this run=     46 maximum allowed number of steps=    100.
 GradGradGradGradGradGradGradGradGradGradGradGradGradGradGradGradGradGrad

 Leave Link  103 at Fri Sep 11 13:02:40 2015, MaxMem=    33554432 cpu:         0.0
 (Enter /usr/local/research/Gaussian09/g09-revD.01/g09/l202.exe)
                          Input orientation:                          
 ---------------------------------------------------------------------
 Center     Atomic      Atomic             Coordinates (Angstroms)
 Number     Number       Type             X           Y           Z
 ---------------------------------------------------------------------
      1          7           0        0.170022   -1.788498    0.000000
      2          6           0       -0.788514   -0.701861    0.000000
      3          1           0        0.035037   -2.260455   -0.875383
      4          1           0        0.035037   -2.260455    0.875383
      5          6           0       -0.069690    0.639667    0.000000
      6          1           0       -1.415600   -0.764389   -0.896269
      7          1           0       -1.415600   -0.764389    0.896269
      8          8           0       -0.733114    1.708968    0.000000
      9          8           0        1.359572    0.684989    0.000000
     10          1           0        1.708530   -0.209323    0.000000
 ---------------------------------------------------------------------
                    Distance matrix (angstroms):
                    1          2          3          4          5
     1  N    0.000000
     2  C    1.448990   0.000000
     3  H    1.003624   1.968184   0.000000
     4  H    1.003624   1.968184   1.750766   0.000000
     5  C    2.439969   1.521974   3.031167   3.031167   0.000000
     6  H    2.089568   1.095649   2.083986   2.735199   2.141529
     7  H    2.089568   1.095649   2.735199   2.083986   2.141529
     8  O    3.612191   2.411465   4.136747   4.136747   1.258386
     9  O    2.744661   2.556878   3.346092   3.346092   1.429981
    10  H    2.204722   2.545156   2.788193   2.788193   1.970495
                    6          7          8          9         10
     6  H    0.000000
     7  H    1.792539   0.000000
     8  O    2.717827   2.717827   0.000000
     9  O    3.256620   3.256620   2.329778   0.000000
    10  H    3.297208   3.297208   3.105070   0.959982   0.000000
 Stoichiometry    C2H5NO2
 Framework group  CS[SG(C2HNO2),X(H4)]
 Deg. of freedom    15
 Full point group                 CS      NOp   2
 Largest Abelian subgroup         CS      NOp   2
 Largest concise Abelian subgroup CS      NOp   2
                         Standard orientation:                         
 ---------------------------------------------------------------------
 Center     Atomic      Atomic             Coordinates (Angstroms)
 Number     Number       Type             X           Y           Z
 ---------------------------------------------------------------------
      1          7           0        0.024685   -1.796392    0.000000
      2          6           0        0.859892   -0.612330    0.000000
      3          1           0        0.209992   -2.250953    0.875383
      4          1           0        0.209992   -2.250953   -0.875383
      5          6           0        0.000000    0.643452    0.000000
      6          1           0        1.490061   -0.606573    0.896269
      7          1           0        1.490061   -0.606573   -0.896269
      8          8           0        0.543708    1.778316    0.000000
      9          8           0       -1.425763    0.533708    0.000000
     10          1           0       -1.675808   -0.393137    0.000000
 ---------------------------------------------------------------------
 Rotational constants (GHZ):      8.9964305      4.0739896      2.9061783
 Leave Link  202 at Fri Sep 11 13:02:40 2015, MaxMem=    33554432 cpu:         0.0
 (Enter /usr/local/research/Gaussian09/g09-revD.01/g09/l301.exe)
 Standard basis: def2SVP (5D, 7F)
 Ernie: Thresh=  0.10000D-02 Tol=  0.10000D-05 Strict=F.
 There are    69 symmetry adapted cartesian basis functions of A'  symmetry.
 There are    31 symmetry adapted cartesian basis functions of A"  symmetry.
 There are    64 symmetry adapted basis functions of A'  symmetry.
 There are    31 symmetry adapted basis functions of A"  symmetry.
    95 basis functions,   160 primitive gaussians,   100 cartesian basis functions
    20 alpha electrons       20 beta electrons
       nuclear repulsion energy       176.7239819562 Hartrees.
 IExCor= 1009 DFT=T Ex=PBE Corr=PBE ExCW=0 ScaHFX=  0.000000
 ScaDFX=  1.000000  1.000000  1.000000  1.000000 ScalE2=  1.000000  1.000000
 IRadAn=      0 IRanWt=     -1 IRanGd=            0 ICorTp=0 IEmpDi=  4
 NAtoms=   10 NActive=   10 NUniq=    8 SFac= 1.56D+00 NAtFMM=   60 NAOKFM=F Big=F
 Integral buffers will be    131072 words long.
 Raffenetti 2 integral format.
 Two-electron integral symmetry is turned on.
 Leave Link  301 at Fri Sep 11 13:02:41 2015, MaxMem=    33554432 cpu:         0.1
 (Enter /usr/local/research/Gaussian09/g09-revD.01/g09/l302.exe)
 NPDir=0 NMtPBC=     1 NCelOv=     1 NCel=       1 NClECP=     1 NCelD=      1
         NCelK=      1 NCelE2=     1 NClLst=     1 CellRange=     0.0.
 One-electron integrals computed using PRISM.
 One-electron integral symmetry used in STVInt
   2 Symmetry operations used in ECPInt.
 ECPInt:  NShTT=    1035 NPrTT=    3735 LenC2=    1033 LenP2D=    3193.
 LDataN:  DoStor=T MaxTD1= 4 Len=   56
 NBasis=    95 RedAO= T EigKep=  3.46D-03  NBF=    64    31
 NBsUse=    95 1.00D-06 EigRej= -1.00D+00 NBFU=    64    31
 Precomputing XC quadrature grid using
 IXCGrd= 4 IRadAn=           0 IRanWt=          -1 IRanGd=           0 AccXCQ= 0.00D+00.
 Generated NRdTot=       0 NPtTot=           0 NUsed=           0 NTot=          32
 NSgBfM=   100   100   100   100   100 MxSgAt=    10 MxSgA2=    10.
 Leave Link  302 at Fri Sep 11 13:02:41 2015, MaxMem=    33554432 cpu:         0.5
 (Enter /usr/local/research/Gaussian09/g09-revD.01/g09/l303.exe)
 DipDrv:  MaxL=1.
 Leave Link  303 at Fri Sep 11 13:02:41 2015, MaxMem=    33554432 cpu:         0.1
 (Enter /usr/local/research/Gaussian09/g09-revD.01/g09/l401.exe)
 ExpMin= 1.22D-01 ExpMax= 2.27D+03 ExpMxC= 3.41D+02 IAcc=1 IRadAn=         1 AccDes= 0.00D+00
 Harris functional with IExCor= 1009 and IRadAn=       1 diagonalized for initial guess.
 HarFok:  IExCor= 1009 AccDes= 0.00D+00 IRadAn=         1 IDoV= 1 UseB2=F ITyADJ=14
 ICtDFT=  3500011 ScaDFX=  1.000000  1.000000  1.000000  1.000000
 FoFCou: FMM=F IPFlag=           0 FMFlag=      100000 FMFlg1=           0
         NFxFlg=           0 DoJE=T BraDBF=F KetDBF=T FulRan=T
         wScrn=  0.000000 ICntrl=     500 IOpCl=  0 I1Cent=   200000004 NGrid=           0
         NMat0=    1 NMatS0=      1 NMatT0=    0 NMatD0=    1 NMtDS0=    0 NMtDT0=    0
 Petite list used in FoFCou.
 Harris En= -283.959297991906    
 JPrj=0 DoOrth=F DoCkMO=F.
 Initial guess orbital symmetries:
       Occupied  (A') (A') (A') (A') (A') (A') (A') (A') (A') (A')
                 (A") (A') (A') (A') (A") (A') (A") (A") (A') (A')
       Virtual   (A") (A') (A") (A') (A') (A') (A") (A') (A') (A')
                 (A') (A') (A") (A') (A') (A') (A") (A') (A") (A')
                 (A') (A") (A') (A') (A') (A") (A') (A") (A') (A")
                 (A') (A') (A") (A') (A') (A') (A") (A") (A") (A")
                 (A') (A") (A') (A') (A') (A') (A') (A") (A") (A')
                 (A') (A') (A") (A') (A") (A') (A') (A') (A") (A')
                 (A') (A") (A') (A') (A") (A") (A') (A") (A") (A')
                 (A") (A') (A') (A') (A')
 The electronic state of the initial guess is 1-A'.
 Leave Link  401 at Fri Sep 11 13:02:42 2015, MaxMem=    33554432 cpu:         0.6
 (Enter /usr/local/research/Gaussian09/g09-revD.01/g09/l502.exe)
 Closed shell SCF:
 Using DIIS extrapolation, IDIIS=  1040.
 Integral symmetry usage will be decided dynamically.
 Keep J ints in memory in symmetry-blocked form, NReq=15735152.
 IVT=       37446 IEndB=       37446 NGot=    33554432 MDV=    28218456
 LenX=    28218456 LenY=    28208015
 Requested convergence on RMS density matrix=1.00D-08 within  64 cycles.
 Requested convergence on MAX density matrix=1.00D-06.
 Requested convergence on             energy=1.00D-06.
 No special actions if energy rises.
 FoFCou: FMM=F IPFlag=           0 FMFlag=           0 FMFlg1=           0
         NFxFlg=           0 DoJE=F BraDBF=F KetDBF=F FulRan=T
         wScrn=  0.000000 ICntrl=     600 IOpCl=  0 I1Cent=           0 NGrid=           0
         NMat0=    1 NMatS0=   4560 NMatT0=    0 NMatD0=    1 NMtDS0=    0 NMtDT0=    0
 Petite list used in FoFCou.
 Integral accuracy reduced to 1.0D-05 until final iterations.

 Cycle   1  Pass 0  IDiag  1:
 E= -283.732974156888    
 DIIS: error= 4.20D-02 at cycle   1 NSaved=   1.
 NSaved= 1 IEnMin= 1 EnMin= -283.732974156888     IErMin= 1 ErrMin= 4.20D-02
 ErrMax= 4.20D-02  0.00D+00 EMaxC= 1.00D-01 BMatC= 1.73D-01 BMatP= 1.73D-01
 IDIUse=3 WtCom= 5.80D-01 WtEn= 4.20D-01
 Coeff-Com:  0.100D+01
 Coeff-En:   0.100D+01
 Coeff:      0.100D+01
 Gap=     0.084 Goal=   None    Shift=    0.000
 GapD=    0.084 DampG=0.500 DampE=0.500 DampFc=0.2500 IDamp=-1.
 Damping current iteration by 2.50D-01
 RMSDP=1.57D-02 MaxDP=3.85D-01              OVMax= 3.43D-01

 Cycle   2  Pass 0  IDiag  1:
 E= -283.775609073529     Delta-E=       -0.042634916641 Rises=F Damp=T
 DIIS: error= 1.39D-02 at cycle   2 NSaved=   2.
 NSaved= 2 IEnMin= 2 EnMin= -283.775609073529     IErMin= 2 ErrMin= 1.39D-02
 ErrMax= 1.39D-02  0.00D+00 EMaxC= 1.00D-01 BMatC= 1.77D-02 BMatP= 1.73D-01
 IDIUse=3 WtCom= 8.61D-01 WtEn= 1.39D-01
 Coeff-Com: -0.150D+00 0.115D+01
 Coeff-En:   0.207D+00 0.793D+00
 Coeff:     -0.100D+00 0.110D+01
 Gap=     0.142 Goal=   None    Shift=    0.000
 RMSDP=4.16D-03 MaxDP=7.91D-02 DE=-4.26D-02 OVMax= 2.98D-01

 Cycle   3  Pass 0  IDiag  1:
 E= -283.805269046921     Delta-E=       -0.029659973392 Rises=F Damp=F
 DIIS: error= 2.76D-02 at cycle   3 NSaved=   3.
 NSaved= 3 IEnMin= 3 EnMin= -283.805269046921     IErMin= 2 ErrMin= 1.39D-02
 ErrMax= 2.76D-02  0.00D+00 EMaxC= 1.00D-01 BMatC= 8.80D-02 BMatP= 1.77D-02
 IDIUse=2 WtCom= 0.00D+00 WtEn= 1.00D+00
 EnCoef did     5 forward-backward iterations
 Coeff-En:   0.849D-01 0.282D+00 0.633D+00
 Coeff:      0.849D-01 0.282D+00 0.633D+00
 Gap=     0.176 Goal=   None    Shift=    0.000
 RMSDP=8.40D-03 MaxDP=1.86D-01 DE=-2.97D-02 OVMax= 3.80D-01

 Cycle   4  Pass 0  IDiag  1:
 E= -283.553974735100     Delta-E=        0.251294311822 Rises=F Damp=F
 DIIS: error= 5.74D-02 at cycle   4 NSaved=   4.
 NSaved= 4 IEnMin= 3 EnMin= -283.805269046921     IErMin= 2 ErrMin= 1.39D-02
 ErrMax= 5.74D-02  0.00D+00 EMaxC= 1.00D-01 BMatC= 3.95D-01 BMatP= 1.77D-02
 IDIUse=2 WtCom= 0.00D+00 WtEn= 1.00D+00
 EnCoef did     1 forward-backward iterations
 Coeff-En:   0.101D+00 0.000D+00 0.654D+00 0.245D+00
 Coeff:      0.101D+00 0.000D+00 0.654D+00 0.245D+00
 Gap=     0.152 Goal=   None    Shift=    0.000
 RMSDP=5.07D-03 MaxDP=1.12D-01 DE= 2.51D-01 OVMax= 2.16D-01

 Cycle   5  Pass 0  IDiag  1:
 E= -283.862720455762     Delta-E=       -0.308745720663 Rises=F Damp=F
 DIIS: error= 1.33D-02 at cycle   5 NSaved=   5.
 NSaved= 5 IEnMin= 5 EnMin= -283.862720455762     IErMin= 5 ErrMin= 1.33D-02
 ErrMax= 1.33D-02  0.00D+00 EMaxC= 1.00D-01 BMatC= 2.27D-02 BMatP= 1.77D-02
 IDIUse=2 WtCom= 0.00D+00 WtEn= 1.00D+00
 Coeff-En:   0.000D+00 0.000D+00 0.267D+00 0.000D+00 0.733D+00
 Coeff:      0.000D+00 0.000D+00 0.267D+00 0.000D+00 0.733D+00
 Gap=     0.164 Goal=   None    Shift=    0.000
 RMSDP=2.12D-03 MaxDP=4.98D-02 DE=-3.09D-01 OVMax= 9.44D-02

 Cycle   6  Pass 0  IDiag  1:
 E= -283.874640474642     Delta-E=       -0.011920018880 Rises=F Damp=F
 DIIS: error= 9.47D-03 at cycle   6 NSaved=   6.
 NSaved= 6 IEnMin= 6 EnMin= -283.874640474642     IErMin= 6 ErrMin= 9.47D-03
 ErrMax= 9.47D-03  0.00D+00 EMaxC= 1.00D-01 BMatC= 8.46D-03 BMatP= 1.77D-02
 IDIUse=3 WtCom= 9.05D-01 WtEn= 9.47D-02
 Coeff-Com: -0.804D-01 0.144D+00 0.190D+00-0.489D-01 0.594D+00 0.201D+00
 Coeff-En:   0.000D+00 0.000D+00 0.000D+00 0.000D+00 0.324D+00 0.676D+00
 Coeff:     -0.728D-01 0.130D+00 0.172D+00-0.443D-01 0.568D+00 0.246D+00
 Gap=     0.164 Goal=   None    Shift=    0.000
 RMSDP=8.51D-04 MaxDP=2.17D-02 DE=-1.19D-02 OVMax= 3.50D-02

 Cycle   7  Pass 0  IDiag  1:
 E= -283.881438516311     Delta-E=       -0.006798041669 Rises=F Damp=F
 DIIS: error= 7.32D-04 at cycle   7 NSaved=   7.
 NSaved= 7 IEnMin= 7 EnMin= -283.881438516311     IErMin= 7 ErrMin= 7.32D-04
 ErrMax= 7.32D-04  0.00D+00 EMaxC= 1.00D-01 BMatC= 8.57D-05 BMatP= 8.46D-03
 IDIUse=3 WtCom= 9.93D-01 WtEn= 7.32D-03
 Coeff-Com: -0.323D-01 0.513D-01 0.493D-01-0.226D-01 0.237D+00 0.163D+00
 Coeff-Com:  0.554D+00
 Coeff-En:   0.000D+00 0.000D+00 0.000D+00 0.000D+00 0.000D+00 0.000D+00
 Coeff-En:   0.100D+01
 Coeff:     -0.320D-01 0.509D-01 0.490D-01-0.225D-01 0.235D+00 0.162D+00
 Coeff:      0.558D+00
 Gap=     0.163 Goal=   None    Shift=    0.000
 RMSDP=1.06D-04 MaxDP=2.42D-03 DE=-6.80D-03 OVMax= 2.41D-03

 Cycle   8  Pass 0  IDiag  1:
 E= -283.881508582081     Delta-E=       -0.000070065771 Rises=F Damp=F
 DIIS: error= 1.60D-04 at cycle   8 NSaved=   8.
 NSaved= 8 IEnMin= 8 EnMin= -283.881508582081     IErMin= 8 ErrMin= 1.60D-04
 ErrMax= 1.60D-04  0.00D+00 EMaxC= 1.00D-01 BMatC= 5.26D-06 BMatP= 8.57D-05
 IDIUse=3 WtCom= 9.98D-01 WtEn= 1.60D-03
 Coeff-Com:  0.377D-03-0.309D-02-0.654D-02-0.351D-03 0.172D-01 0.536D-01
 Coeff-Com:  0.286D+00 0.652D+00
 Coeff-En:   0.000D+00 0.000D+00 0.000D+00 0.000D+00 0.000D+00 0.000D+00
 Coeff-En:   0.000D+00 0.100D+01
 Coeff:      0.376D-03-0.308D-02-0.653D-02-0.351D-03 0.172D-01 0.536D-01
 Coeff:      0.286D+00 0.653D+00
 Gap=     0.163 Goal=   None    Shift=    0.000
 RMSDP=2.36D-05 MaxDP=5.19D-04 DE=-7.01D-05 OVMax= 5.13D-04

 Cycle   9  Pass 0  IDiag  1:
 E= -283.881513366312     Delta-E=       -0.000004784231 Rises=F Damp=F
 DIIS: error= 1.43D-05 at cycle   9 NSaved=   9.
 NSaved= 9 IEnMin= 9 EnMin= -283.881513366312     IErMin= 9 ErrMin= 1.43D-05
 ErrMax= 1.43D-05  0.00D+00 EMaxC= 1.00D-01 BMatC= 2.57D-08 BMatP= 5.26D-06
 IDIUse=1 WtCom= 1.00D+00 WtEn= 0.00D+00
 Coeff-Com:  0.135D-05-0.391D-03-0.193D-02-0.313D-04 0.373D-02 0.136D-01
 Coeff-Com:  0.774D-01 0.190D+00 0.717D+00
 Coeff:      0.135D-05-0.391D-03-0.193D-02-0.313D-04 0.373D-02 0.136D-01
 Coeff:      0.774D-01 0.190D+00 0.717D+00
 Gap=     0.163 Goal=   None    Shift=    0.000
 RMSDP=2.76D-06 MaxDP=5.48D-05 DE=-4.78D-06 OVMax= 5.38D-05

 Initial convergence to 1.0D-05 achieved.  Increase integral accuracy.
 Cycle  10  Pass 1  IDiag  1:
 E= -283.881500471248     Delta-E=        0.000012895064 Rises=F Damp=F
 DIIS: error= 2.11D-05 at cycle   1 NSaved=   1.
 NSaved= 1 IEnMin= 1 EnMin= -283.881500471248     IErMin= 1 ErrMin= 2.11D-05
 ErrMax= 2.11D-05  0.00D+00 EMaxC= 1.00D-01 BMatC= 3.30D-08 BMatP= 3.30D-08
 IDIUse=1 WtCom= 1.00D+00 WtEn= 0.00D+00
 Coeff-Com:  0.100D+01
 Coeff:      0.100D+01
 Gap=     0.163 Goal=   None    Shift=    0.000
 RMSDP=2.76D-06 MaxDP=5.48D-05 DE= 1.29D-05 OVMax= 1.51D-04

 Cycle  11  Pass 1  IDiag  1:
 E= -283.881500468860     Delta-E=        0.000000002388 Rises=F Damp=F
 DIIS: error= 2.62D-05 at cycle   2 NSaved=   2.
 NSaved= 2 IEnMin= 1 EnMin= -283.881500471248     IErMin= 1 ErrMin= 2.11D-05
 ErrMax= 2.62D-05  0.00D+00 EMaxC= 1.00D-01 BMatC= 5.75D-08 BMatP= 3.30D-08
 IDIUse=1 WtCom= 1.00D+00 WtEn= 0.00D+00
 Coeff-Com:  0.596D+00 0.404D+00
 Coeff:      0.596D+00 0.404D+00
 Gap=     0.163 Goal=   None    Shift=    0.000
 RMSDP=3.60D-06 MaxDP=8.05D-05 DE= 2.39D-09 OVMax= 1.84D-04

 Cycle  12  Pass 1  IDiag  1:
 E= -283.881500492223     Delta-E=       -0.000000023363 Rises=F Damp=F
 DIIS: error= 1.82D-05 at cycle   3 NSaved=   3.
 NSaved= 3 IEnMin= 3 EnMin= -283.881500492223     IErMin= 3 ErrMin= 1.82D-05
 ErrMax= 1.82D-05  0.00D+00 EMaxC= 1.00D-01 BMatC= 3.12D-08 BMatP= 3.30D-08
 IDIUse=1 WtCom= 1.00D+00 WtEn= 0.00D+00
 Coeff-Com:  0.124D+00 0.390D+00 0.487D+00
 Coeff:      0.124D+00 0.390D+00 0.487D+00
 Gap=     0.163 Goal=   None    Shift=    0.000
 RMSDP=1.99D-06 MaxDP=5.21D-05 DE=-2.34D-08 OVMax= 8.98D-05

 Cycle  13  Pass 1  IDiag  1:
 E= -283.881500514721     Delta-E=       -0.000000022498 Rises=F Damp=F
 DIIS: error= 5.50D-06 at cycle   4 NSaved=   4.
 NSaved= 4 IEnMin= 4 EnMin= -283.881500514721     IErMin= 4 ErrMin= 5.50D-06
 ErrMax= 5.50D-06  0.00D+00 EMaxC= 1.00D-01 BMatC= 3.37D-09 BMatP= 3.12D-08
 IDIUse=1 WtCom= 1.00D+00 WtEn= 0.00D+00
 Coeff-Com:  0.778D-02 0.229D+00 0.342D+00 0.422D+00
 Coeff:      0.778D-02 0.229D+00 0.342D+00 0.422D+00
 Gap=     0.163 Goal=   None    Shift=    0.000
 RMSDP=7.36D-07 MaxDP=1.62D-05 DE=-2.25D-08 OVMax= 1.66D-05

 Cycle  14  Pass 1  IDiag  1:
 E= -283.881500517248     Delta-E=       -0.000000002527 Rises=F Damp=F
 DIIS: error= 1.16D-06 at cycle   5 NSaved=   5.
 NSaved= 5 IEnMin= 5 EnMin= -283.881500517248     IErMin= 5 ErrMin= 1.16D-06
 ErrMax= 1.16D-06  0.00D+00 EMaxC= 1.00D-01 BMatC= 2.13D-10 BMatP= 3.37D-09
 IDIUse=1 WtCom= 1.00D+00 WtEn= 0.00D+00
 Coeff-Com: -0.153D-02 0.125D+00 0.184D+00 0.282D+00 0.410D+00
 Coeff:     -0.153D-02 0.125D+00 0.184D+00 0.282D+00 0.410D+00
 Gap=     0.163 Goal=   None    Shift=    0.000
 RMSDP=1.30D-07 MaxDP=3.70D-06 DE=-2.53D-09 OVMax= 4.17D-06

 Cycle  15  Pass 1  IDiag  1:
 E= -283.881500517425     Delta-E=       -0.000000000177 Rises=F Damp=F
 DIIS: error= 2.52D-07 at cycle   6 NSaved=   6.
 NSaved= 6 IEnMin= 6 EnMin= -283.881500517425     IErMin= 6 ErrMin= 2.52D-07
 ErrMax= 2.52D-07  0.00D+00 EMaxC= 1.00D-01 BMatC= 9.41D-12 BMatP= 2.13D-10
 IDIUse=1 WtCom= 1.00D+00 WtEn= 0.00D+00
 Coeff-Com: -0.126D-02 0.602D-01 0.848D-01 0.144D+00 0.240D+00 0.473D+00
 Coeff:     -0.126D-02 0.602D-01 0.848D-01 0.144D+00 0.240D+00 0.473D+00
 Gap=     0.163 Goal=   None    Shift=    0.000
 RMSDP=3.90D-08 MaxDP=5.54D-07 DE=-1.77D-10 OVMax= 1.04D-06

 Cycle  16  Pass 1  IDiag  1:
 E= -283.881500517433     Delta-E=       -0.000000000008 Rises=F Damp=F
 DIIS: error= 7.71D-08 at cycle   7 NSaved=   7.
 NSaved= 7 IEnMin= 7 EnMin= -283.881500517433     IErMin= 7 ErrMin= 7.71D-08
 ErrMax= 7.71D-08  0.00D+00 EMaxC= 1.00D-01 BMatC= 7.25D-13 BMatP= 9.41D-12
 IDIUse=1 WtCom= 1.00D+00 WtEn= 0.00D+00
 Coeff-Com: -0.547D-03 0.203D-01 0.268D-01 0.519D-01 0.919D-01 0.270D+00
 Coeff-Com:  0.540D+00
 Coeff:     -0.547D-03 0.203D-01 0.268D-01 0.519D-01 0.919D-01 0.270D+00
 Coeff:      0.540D+00
 Gap=     0.163 Goal=   None    Shift=    0.000
 RMSDP=1.16D-08 MaxDP=2.57D-07 DE=-8.41D-12 OVMax= 2.76D-07

 Cycle  17  Pass 1  IDiag  1:
 E= -283.881500517436     Delta-E=       -0.000000000003 Rises=F Damp=F
 DIIS: error= 1.05D-08 at cycle   8 NSaved=   8.
 NSaved= 8 IEnMin= 8 EnMin= -283.881500517436     IErMin= 8 ErrMin= 1.05D-08
 ErrMax= 1.05D-08  0.00D+00 EMaxC= 1.00D-01 BMatC= 1.75D-14 BMatP= 7.25D-13
 IDIUse=1 WtCom= 1.00D+00 WtEn= 0.00D+00
 Coeff-Com: -0.139D-03 0.401D-02 0.519D-02 0.109D-01 0.194D-01 0.710D-01
 Coeff-Com:  0.208D+00 0.682D+00
 Coeff:     -0.139D-03 0.401D-02 0.519D-02 0.109D-01 0.194D-01 0.710D-01
 Coeff:      0.208D+00 0.682D+00
 Gap=     0.163 Goal=   None    Shift=    0.000
 RMSDP=1.66D-09 MaxDP=2.99D-08 DE=-2.73D-12 OVMax= 3.62D-08

 SCF Done:  E(RPBE-PBE) =  -283.881500517     A.U. after   17 cycles
            NFock= 17  Conv=0.17D-08     -V/T= 2.0086
 KE= 2.814473668359D+02 PE=-1.019093610519D+03 EE= 2.770407612094D+02
 Leave Link  502 at Fri Sep 11 13:02:58 2015, MaxMem=    33554432 cpu:        15.9
 (Enter /usr/local/research/Gaussian09/g09-revD.01/g09/l508.exe)
 QCSCF skips out because SCF is already converged.
 Leave Link  508 at Fri Sep 11 13:02:58 2015, MaxMem=    33554432 cpu:         0.0
 (Enter /usr/local/research/Gaussian09/g09-revD.01/g09/l601.exe)
 Copying SCF densities to generalized density rwf, IOpCl= 0 IROHF=0.

 **********************************************************************

            Population analysis using the SCF density.

 **********************************************************************

 Orbital symmetries:
       Occupied  (A') (A') (A') (A') (A') (A') (A') (A') (A') (A')
                 (A") (A') (A') (A") (A') (A") (A') (A") (A') (A')
       Virtual   (A") (A') (A") (A') (A') (A') (A") (A') (A') (A')
                 (A') (A") (A') (A') (A') (A") (A') (A') (A") (A')
                 (A') (A") (A') (A') (A') (A") (A') (A") (A') (A")
                 (A') (A') (A") (A') (A') (A') (A") (A") (A") (A")
                 (A') (A") (A') (A') (A') (A') (A') (A") (A") (A')
                 (A') (A') (A") (A') (A") (A') (A') (A') (A") (A')
                 (A') (A") (A') (A') (A") (A") (A") (A') (A") (A")
                 (A') (A') (A') (A') (A')
 The electronic state is 1-A'.
 Alpha  occ. eigenvalues --  -18.78266 -18.73125 -14.00625 -10.00867  -9.94689
 Alpha  occ. eigenvalues --   -0.95378  -0.88476  -0.83286  -0.63688  -0.52639
 Alpha  occ. eigenvalues --   -0.50471  -0.45568  -0.42040  -0.38964  -0.35516
 Alpha  occ. eigenvalues --   -0.32811  -0.31710  -0.25207  -0.24160  -0.20227
 Alpha virt. eigenvalues --   -0.03917  -0.00123   0.05575   0.07126   0.08022
 Alpha virt. eigenvalues --    0.13031   0.14536   0.20355   0.24435   0.29436
 Alpha virt. eigenvalues --    0.38331   0.41188   0.42014   0.47556   0.52188
 Alpha virt. eigenvalues --    0.52570   0.54086   0.57117   0.59063   0.60098
 Alpha virt. eigenvalues --    0.60626   0.63182   0.74392   0.75604   0.80467
 Alpha virt. eigenvalues --    0.80494   0.87912   0.92407   0.96084   0.99019
 Alpha virt. eigenvalues --    1.04077   1.11292   1.11797   1.20072   1.29648
 Alpha virt. eigenvalues --    1.31778   1.34154   1.36630   1.48703   1.54955
 Alpha virt. eigenvalues --    1.59925   1.60003   1.63345   1.67501   1.69368
 Alpha virt. eigenvalues --    1.72417   1.75003   1.76048   1.83229   1.84482
 Alpha virt. eigenvalues --    1.96641   2.08754   2.10632   2.15456   2.16848
 Alpha virt. eigenvalues --    2.21414   2.27395   2.34182   2.56111   2.59925
 Alpha virt. eigenvalues --    2.64295   2.67673   2.71950   2.74553   2.75755
 Alpha virt. eigenvalues --    2.84787   2.88923   2.88972   3.02340   3.17099
 Alpha virt. eigenvalues --    3.17710   3.20032   3.30118   3.49119   3.68536
          Condensed to atoms (all electrons):
               1          2          3          4          5          6
     1  N    6.290410   0.261946   0.360486   0.360486  -0.070905  -0.013268
     2  C    0.261946   5.189269  -0.023996  -0.023996   0.108246   0.350524
     3  H    0.360486  -0.023996   0.577925  -0.024154   0.008431  -0.022112
     4  H    0.360486  -0.023996  -0.024154   0.577925   0.008431   0.006238
     5  C   -0.070905   0.108246   0.008431   0.008431   4.852315  -0.012757
     6  H   -0.013268   0.350524  -0.022112   0.006238  -0.012757   0.631357
     7  H   -0.013268   0.350524   0.006238  -0.022112  -0.012757  -0.008658
     8  O    0.003224  -0.094723  -0.000212  -0.000212   0.643883   0.005202
     9  O   -0.002457  -0.120715   0.000418   0.000418   0.373985   0.002357
    10  H    0.054787  -0.010270  -0.001101  -0.001101  -0.017729   0.001369
               7          8          9         10
     1  N   -0.013268   0.003224  -0.002457   0.054787
     2  C    0.350524  -0.094723  -0.120715  -0.010270
     3  H    0.006238  -0.000212   0.000418  -0.001101
     4  H   -0.022112  -0.000212   0.000418  -0.001101
     5  C   -0.012757   0.643883   0.373985  -0.017729
     6  H   -0.008658   0.005202   0.002357   0.001369
     7  H    0.631357   0.005202   0.002357   0.001369
     8  O    0.005202   7.721270  -0.058896   0.004303
     9  O    0.002357  -0.058896   7.685073   0.295521
    10  H    0.001369   0.004303   0.295521   0.522012
 Mulliken charges:
               1
     1  N   -0.231440
     2  C    0.013192
     3  H    0.118078
     4  H    0.118078
     5  C    0.118856
     6  H    0.059749
     7  H    0.059749
     8  O   -0.229041
     9  O   -0.178061
    10  H    0.150840
 Sum of Mulliken charges =   0.00000
 Mulliken charges with hydrogens summed into heavy atoms:
               1
     1  N    0.004716
     2  C    0.132690
     5  C    0.118856
     8  O   -0.229041
     9  O   -0.027221
 Electronic spatial extent (au):  <R**2>=            420.6233
 Charge=              0.0000 electrons
 Dipole moment (field-independent basis, Debye):
    X=              0.9135    Y=             -5.2244    Z=              0.0000  Tot=              5.3037
 Quadrupole moment (field-independent basis, Debye-Ang):
   XX=            -29.5574   YY=            -31.9115   ZZ=            -26.5117
   XY=             -1.4913   XZ=              0.0000   YZ=              0.0000
 Traceless Quadrupole moment (field-independent basis, Debye-Ang):
   XX=             -0.2306   YY=             -2.5846   ZZ=              2.8152
   XY=             -1.4913   XZ=              0.0000   YZ=              0.0000
 Octapole moment (field-independent basis, Debye-Ang**2):
  XXX=             -4.5004  YYY=            -18.3963  ZZZ=              0.0000  XYY=             -0.1987
  XXY=             -4.5184  XXZ=              0.0000  XZZ=              0.8024  YZZ=             -3.9326
  YYZ=              0.0000  XYZ=              0.0000
 Hexadecapole moment (field-independent basis, Debye-Ang**3):
 XXXX=           -146.3123 YYYY=           -299.1353 ZZZZ=            -33.1794 XXXY=             15.4165
 XXXZ=              0.0000 YYYX=             -1.6186 YYYZ=              0.0000 ZZZX=              0.0000
 ZZZY=              0.0000 XXYY=            -81.6421 XXZZ=            -29.7372 YYZZ=            -46.1857
 XXYZ=              0.0000 YYXZ=              0.0000 ZZXY=              1.4392
 N-N= 1.767239819562D+02 E-N=-1.019093611313D+03  KE= 2.814473668359D+02
 Symmetry A'   KE= 2.684449927944D+02
 Symmetry A"   KE= 1.300237404148D+01
 No NMR shielding tensors so no spin-rotation constants.
 Leave Link  601 at Fri Sep 11 13:02:58 2015, MaxMem=    33554432 cpu:         0.3
 (Enter /usr/local/research/Gaussian09/g09-revD.01/g09/l701.exe)
 Compute integral first derivatives.
 ... and contract with generalized density number  0.
   2 Symmetry operations used in ECPInt.
 ECPInt:  NShTT=    1035 NPrTT=    3735 LenC2=    1033 LenP2D=    3193.
 LDataN:  DoStor=T MaxTD1= 5 Len=  102
 Leave Link  701 at Fri Sep 11 13:02:59 2015, MaxMem=    33554432 cpu:         0.3
 (Enter /usr/local/research/Gaussian09/g09-revD.01/g09/l702.exe)
 L702 exits ... SP integral derivatives will be done elsewhere.
 Leave Link  702 at Fri Sep 11 13:02:59 2015, MaxMem=    33554432 cpu:         0.1
 (Enter /usr/local/research/Gaussian09/g09-revD.01/g09/l703.exe)
 Compute integral first derivatives, UseDBF=F ICtDFT=           0.
 Integral derivatives from FoFJK, PRISM(SPDF).
 Calling FoFJK, ICntrl=      2527 FMM=F ISym2X=1 I1Cent= 0 IOpClX= 0 NMat=1 NMatS=1 NMatT=0.
 FoFJK:  IHMeth= 1 ICntrl=    2527 DoSepK=F KAlg= 0 I1Cent=   0 FoldK=F
 IRaf=         0 NMat=   1 IRICut=       1 DoRegI=T DoRafI=F ISym2E= 1.
 FoFCou: FMM=F IPFlag=           0 FMFlag=      100000 FMFlg1=         800
         NFxFlg=           0 DoJE=F BraDBF=F KetDBF=F FulRan=T
         wScrn=  0.000000 ICntrl=    2527 IOpCl=  0 I1Cent=           0 NGrid=           0
         NMat0=    1 NMatS0=      1 NMatT0=    0 NMatD0=    1 NMtDS0=    0 NMtDT0=    0
 Petite list used in FoFCou.
 Leave Link  703 at Fri Sep 11 13:03:04 2015, MaxMem=    33554432 cpu:         4.7
 (Enter /usr/local/research/Gaussian09/g09-revD.01/g09/l716.exe)
 Dipole        = 3.59382130D-01-2.05544766D+00-8.67361738D-19
 ***** Axes restored to original set *****
 -------------------------------------------------------------------
 Center     Atomic                   Forces (Hartrees/Bohr)
 Number     Number              X              Y              Z
 -------------------------------------------------------------------
      1        7           0.007304107    0.025086418    0.000000000
      2        6           0.026757673    0.004282094    0.000000000
      3        1           0.003619245   -0.027674573   -0.002280284
      4        1           0.003619245   -0.027674573    0.002280284
      5        6          -0.001978498    0.073960206    0.000000000
      6        1          -0.009862692    0.006860179   -0.003955987
      7        1          -0.009862692    0.006860179    0.003955987
      8        8           0.039849822   -0.054717086    0.000000000
      9        8          -0.057428192    0.021815085    0.000000000
     10        1          -0.002018019   -0.028797929    0.000000000
 -------------------------------------------------------------------
 Cartesian Forces:  Max     0.073960206 RMS     0.024473524
 Leave Link  716 at Fri Sep 11 13:03:04 2015, MaxMem=    33554432 cpu:         0.1
 (Enter /usr/local/research/Gaussian09/g09-revD.01/g09/l103.exe)

 GradGradGradGradGradGradGradGradGradGradGradGradGradGradGradGradGradGrad
 Berny optimization.
 FormGI is forming the generalized inverse of G from B-inverse, IUseBI=4.
 Internal  Forces:  Max     0.067508172 RMS     0.020056625
 Search for a local minimum.
 Step number   1 out of a maximum of   46
 All quantities printed in internal units (Hartrees-Bohrs-Radians)
 RMS Force = .20057D-01 SwitMx=.10000D-02 MixMth= 1
 Mixed Optimization -- RFO/linear search
 Second derivative matrix not updated -- first step.
 ITU=  0
     Eigenvalues ---    0.00475   0.00680   0.01044   0.01295   0.04674
     Eigenvalues ---    0.05362   0.06673   0.09599   0.13036   0.16000
     Eigenvalues ---    0.16000   0.16000   0.22059   0.25000   0.25000
     Eigenvalues ---    0.30177   0.34168   0.34168   0.38378   0.40992
     Eigenvalues ---    0.47057   0.47057   0.55477   0.80214
 RFO step:  Lambda=-3.75704827D-02 EMin= 4.75278849D-03
 Linear search not attempted -- first point.
 Maximum step size (   0.300) exceeded in Quadratic search.
    -- Step size scaled by   0.855
 Iteration  1 RMS(Cart)=  0.10276323 RMS(Int)=  0.00462338
 Iteration  2 RMS(Cart)=  0.00495795 RMS(Int)=  0.00154423
 Iteration  3 RMS(Cart)=  0.00002550 RMS(Int)=  0.00154413
 Iteration  4 RMS(Cart)=  0.00000000 RMS(Int)=  0.00154413
 ITry= 1 IFail=0 DXMaxC= 3.97D-01 DCOld= 1.00D+10 DXMaxT= 3.00D-01 DXLimC= 3.00D+00 Rises=F
 ClnCor:  largest displacement from symmetrization is 8.67D-09 for atom    10.
 Variable       Old X    -DE/DX   Delta X   Delta X   Delta X     New X
                                 (Linear)    (Quad)   (Total)
    R1        2.73819   0.03230   0.00000   0.06558   0.06558   2.80377
    R2        1.89657   0.01452   0.00000   0.02444   0.02444   1.92101
    R3        1.89657   0.01452   0.00000   0.02444   0.02444   1.92101
    R4        2.87611   0.00062   0.00000   0.00156   0.00156   2.87767
    R5        2.07048   0.00849   0.00000   0.01915   0.01915   2.08963
    R6        2.07048   0.00849   0.00000   0.01915   0.01915   2.08963
    R7        2.37800  -0.06751   0.00000  -0.06877  -0.06877   2.30923
    R8        2.70227  -0.05963   0.00000  -0.11399  -0.11399   2.58828
    R9        1.81410   0.02611   0.00000   0.03770   0.03770   1.85180
    A1        1.83763   0.02533   0.00000   0.10733   0.10372   1.94135
    A2        1.83763   0.02533   0.00000   0.10733   0.10372   1.94135
    A3        2.11946  -0.02593   0.00000  -0.11711  -0.12311   1.99634
    A4        1.92685   0.00912   0.00000   0.03636   0.03626   1.96311
    A5        1.91327   0.00384   0.00000   0.03350   0.03373   1.94700
    A6        1.91327   0.00384   0.00000   0.03350   0.03373   1.94700
    A7        1.89718  -0.00712   0.00000  -0.03655  -0.03761   1.85957
    A8        1.89718  -0.00712   0.00000  -0.03655  -0.03761   1.85957
    A9        1.91594  -0.00277   0.00000  -0.03179  -0.03365   1.88229
   A10        2.09439   0.02005   0.00000   0.05963   0.05963   2.15403
   A11        2.09439  -0.02814   0.00000  -0.08370  -0.08370   2.01069
   A12        2.09440   0.00809   0.00000   0.02406   0.02406   2.11847
   A13        1.91112  -0.02240   0.00000  -0.09701  -0.09701   1.81412
    D1       -2.01203  -0.00073   0.00000  -0.00740  -0.00591  -2.01795
    D2        0.07747  -0.00142   0.00000  -0.00874  -0.00701   0.07046
    D3        2.18165  -0.00004   0.00000  -0.00606  -0.00481   2.17683
    D4        2.01203   0.00073   0.00000   0.00740   0.00591   2.01795
    D5       -2.18165   0.00004   0.00000   0.00606   0.00481  -2.17683
    D6       -0.07747   0.00142   0.00000   0.00874   0.00701  -0.07046
    D7        3.14159   0.00000   0.00000   0.00000   0.00000   3.14159
    D8        0.00000   0.00000   0.00000   0.00000   0.00000   0.00000
    D9        1.04240  -0.00580   0.00000  -0.04034  -0.03930   1.00310
   D10       -2.09919  -0.00580   0.00000  -0.04034  -0.03930  -2.13849
   D11       -1.04240   0.00580   0.00000   0.04034   0.03930  -1.00310
   D12        2.09919   0.00580   0.00000   0.04034   0.03930   2.13849
   D13        0.00000   0.00000   0.00000   0.00000   0.00000   0.00000
   D14        3.14159   0.00000   0.00000   0.00000   0.00000   3.14159
         Item               Value     Threshold  Converged?
 Maximum Force            0.067508     0.000450     NO 
 RMS     Force            0.020057     0.000300     NO 
 Maximum Displacement     0.397040     0.001800     NO 
 RMS     Displacement     0.104610     0.001200     NO 
 Predicted change in Energy=-2.015721D-02
 Lowest energy point so far.  Saving SCF results.
 GradGradGradGradGradGradGradGradGradGradGradGradGradGradGradGradGradGrad

 Leave Link  103 at Fri Sep 11 13:03:04 2015, MaxMem=    33554432 cpu:         0.0
 (Enter /usr/local/research/Gaussian09/g09-revD.01/g09/l202.exe)
                          Input orientation:                          
 ---------------------------------------------------------------------
 Center     Atomic      Atomic             Coordinates (Angstroms)
 Number     Number       Type             X           Y           Z
 ---------------------------------------------------------------------
      1          7           0        0.203853   -1.790440    0.000000
      2          6           0       -0.766145   -0.667744    0.000000
      3          1           0        0.134492   -2.336866   -0.854398
      4          1           0        0.134492   -2.336866    0.854398
      5          6           0       -0.082032    0.692734    0.000000
      6          1           0       -1.416807   -0.693030   -0.893730
      7          1           0       -1.416807   -0.693030    0.893730
      8          8           0       -0.690956    1.752205    0.000000
      9          8           0        1.287164    0.657089    0.000000
     10          1           0        1.498425   -0.299799    0.000000
 ---------------------------------------------------------------------
                    Distance matrix (angstroms):
                    1          2          3          4          5
     1  N    0.000000
     2  C    1.483692   0.000000
     3  H    1.016557   2.080171   0.000000
     4  H    1.016557   2.080171   1.708796   0.000000
     5  C    2.499576   1.522797   3.155211   3.155211   0.000000
     6  H    2.151650   1.105782   2.260592   2.857390   2.121490
     7  H    2.151650   1.105782   2.857390   2.260592   2.121490
     8  O    3.653904   2.421116   4.258152   4.258152   1.221993
     9  O    2.676558   2.443616   3.320002   3.320002   1.369660
    10  H    1.974317   2.294266   2.596141   2.596141   1.866271
                    6          7          8          9         10
     6  H    0.000000
     7  H    1.787460   0.000000
     8  O    2.702736   2.702736   0.000000
     9  O    3.151671   3.151671   2.261026   0.000000
    10  H    3.074404   3.074404   3.000685   0.979932   0.000000
 Stoichiometry    C2H5NO2
 Framework group  CS[SG(C2HNO2),X(H4)]
 Deg. of freedom    15
 Full point group                 CS      NOp   2
 RotChk:  IX=0 Diff= 1.86D-02
 Largest Abelian subgroup         CS      NOp   2
 Largest concise Abelian subgroup CS      NOp   2
                         Standard orientation:                         
 ---------------------------------------------------------------------
 Center     Atomic      Atomic             Coordinates (Angstroms)
 Number     Number       Type             X           Y           Z
 ---------------------------------------------------------------------
      1          7           0        0.017569   -1.815012    0.000000
      2          6           0        0.844154   -0.582902    0.000000
      3          1           0        0.152727   -2.348983    0.854398
      4          1           0        0.152727   -2.348983   -0.854398
      5          6           0        0.000000    0.684502    0.000000
      6          1           0        1.493077   -0.529041    0.893730
      7          1           0        1.493077   -0.529041   -0.893730
      8          8           0        0.475853    1.810038    0.000000
      9          8           0       -1.354751    0.482965    0.000000
     10          1           0       -1.448330   -0.492489    0.000000
 ---------------------------------------------------------------------
 Rotational constants (GHZ):      9.9174291      3.9877566      2.9463269
 Leave Link  202 at Fri Sep 11 13:03:04 2015, MaxMem=    33554432 cpu:         0.0
 (Enter /usr/local/research/Gaussian09/g09-revD.01/g09/l301.exe)
 Standard basis: def2SVP (5D, 7F)
 Ernie: Thresh=  0.10000D-02 Tol=  0.10000D-05 Strict=F.
 There are    69 symmetry adapted cartesian basis functions of A'  symmetry.
 There are    31 symmetry adapted cartesian basis functions of A"  symmetry.
 There are    64 symmetry adapted basis functions of A'  symmetry.
 There are    31 symmetry adapted basis functions of A"  symmetry.
    95 basis functions,   160 primitive gaussians,   100 cartesian basis functions
    20 alpha electrons       20 beta electrons
       nuclear repulsion energy       178.5378686912 Hartrees.
 IExCor= 1009 DFT=T Ex=PBE Corr=PBE ExCW=0 ScaHFX=  0.000000
 ScaDFX=  1.000000  1.000000  1.000000  1.000000 ScalE2=  1.000000  1.000000
 IRadAn=      0 IRanWt=     -1 IRanGd=            0 ICorTp=0 IEmpDi=  4
 NAtoms=   10 NActive=   10 NUniq=    8 SFac= 1.56D+00 NAtFMM=   60 NAOKFM=F Big=F
 Integral buffers will be    131072 words long.
 Raffenetti 2 integral format.
 Two-electron integral symmetry is turned on.
 Leave Link  301 at Fri Sep 11 13:03:04 2015, MaxMem=    33554432 cpu:         0.1
 (Enter /usr/local/research/Gaussian09/g09-revD.01/g09/l302.exe)
 NPDir=0 NMtPBC=     1 NCelOv=     1 NCel=       1 NClECP=     1 NCelD=      1
         NCelK=      1 NCelE2=     1 NClLst=     1 CellRange=     0.0.
 One-electron integrals computed using PRISM.
 One-electron integral symmetry used in STVInt
   2 Symmetry operations used in ECPInt.
 ECPInt:  NShTT=    1035 NPrTT=    3735 LenC2=    1033 LenP2D=    3193.
 LDataN:  DoStor=T MaxTD1= 4 Len=   56
 NBasis=    95 RedAO= T EigKep=  3.49D-03  NBF=    64    31
 NBsUse=    95 1.00D-06 EigRej= -1.00D+00 NBFU=    64    31
 Precomputing XC quadrature grid using
 IXCGrd= 4 IRadAn=           0 IRanWt=          -1 IRanGd=           0 AccXCQ= 0.00D+00.
 Generated NRdTot=       0 NPtTot=           0 NUsed=           0 NTot=          32
 NSgBfM=   100   100   100   100   100 MxSgAt=    10 MxSgA2=    10.
 Leave Link  302 at Fri Sep 11 13:03:04 2015, MaxMem=    33554432 cpu:         0.5
 (Enter /usr/local/research/Gaussian09/g09-revD.01/g09/l303.exe)
 DipDrv:  MaxL=1.
 Leave Link  303 at Fri Sep 11 13:03:04 2015, MaxMem=    33554432 cpu:         0.1
 (Enter /usr/local/research/Gaussian09/g09-revD.01/g09/l401.exe)
 Initial guess from the checkpoint file:  "2-ccc.chk"
 B after Tr=     0.000000    0.000000    0.000000
         Rot=    0.999966    0.000000    0.000000   -0.008216 Ang=  -0.94 deg.
 Guess basis will be translated and rotated to current coordinates.
 JPrj=2 DoOrth=T DoCkMO=T.
 Initial guess orbital symmetries:
       Occupied  (A') (A') (A') (A') (A') (A') (A') (A') (A') (A')
                 (A") (A') (A') (A") (A') (A") (A') (A") (A') (A')
       Virtual   (A') (A') (A') (A') (A') (A') (A') (A') (A') (A')
                 (A') (A') (A') (A') (A') (A') (A') (A') (A') (A')
                 (A') (A') (A') (A') (A') (A') (A') (A') (A') (A')
                 (A') (A') (A') (A') (A') (A') (A') (A') (A') (A')
                 (A') (A') (A') (A') (A') (A') (A') (A') (A") (A")
                 (A") (A") (A") (A") (A") (A") (A") (A") (A") (A")
                 (A") (A") (A") (A") (A") (A") (A") (A") (A") (A")
                 (A") (A") (A") (A") (A")
 The electronic state of the initial guess is 1-A'.
 Generating alternative initial guess.
 ExpMin= 1.22D-01 ExpMax= 2.27D+03 ExpMxC= 3.41D+02 IAcc=1 IRadAn=         1 AccDes= 0.00D+00
 Harris functional with IExCor= 1009 and IRadAn=       1 diagonalized for initial guess.
 HarFok:  IExCor= 1009 AccDes= 0.00D+00 IRadAn=         1 IDoV= 1 UseB2=F ITyADJ=14
 ICtDFT=  3500011 ScaDFX=  1.000000  1.000000  1.000000  1.000000
 FoFCou: FMM=F IPFlag=           0 FMFlag=      100000 FMFlg1=           0
         NFxFlg=           0 DoJE=T BraDBF=F KetDBF=T FulRan=T
         wScrn=  0.000000 ICntrl=     500 IOpCl=  0 I1Cent=   200000004 NGrid=           0
         NMat0=    1 NMatS0=      1 NMatT0=    0 NMatD0=    1 NMtDS0=    0 NMtDT0=    0
 Petite list used in FoFCou.
 Harris En= -283.973321877792    
 Leave Link  401 at Fri Sep 11 13:03:05 2015, MaxMem=    33554432 cpu:         0.8
 (Enter /usr/local/research/Gaussian09/g09-revD.01/g09/l502.exe)
 Closed shell SCF:
 Using DIIS extrapolation, IDIIS=  1040.
 Integral symmetry usage will be decided dynamically.
 Keep J ints in memory in symmetry-blocked form, NReq=15735152.
 IVT=       37446 IEndB=       37446 NGot=    33554432 MDV=    28218456
 LenX=    28218456 LenY=    28208015
 Requested convergence on RMS density matrix=1.00D-08 within  64 cycles.
 Requested convergence on MAX density matrix=1.00D-06.
 Requested convergence on             energy=1.00D-06.
 No special actions if energy rises.
 FoFCou: FMM=F IPFlag=           0 FMFlag=           0 FMFlg1=           0
         NFxFlg=           0 DoJE=F BraDBF=F KetDBF=F FulRan=T
         wScrn=  0.000000 ICntrl=     600 IOpCl=  0 I1Cent=           0 NGrid=           0
         NMat0=    1 NMatS0=   4560 NMatT0=    0 NMatD0=    1 NMtDS0=    0 NMtDT0=    0
 Petite list used in FoFCou.
 Integral accuracy reduced to 1.0D-05 until final iterations.

 Cycle   1  Pass 0  IDiag  1:
 E= -283.892637016125    
 DIIS: error= 7.09D-03 at cycle   1 NSaved=   1.
 NSaved= 1 IEnMin= 1 EnMin= -283.892637016125     IErMin= 1 ErrMin= 7.09D-03
 ErrMax= 7.09D-03  0.00D+00 EMaxC= 1.00D-01 BMatC= 7.69D-03 BMatP= 7.69D-03
 IDIUse=3 WtCom= 9.29D-01 WtEn= 7.09D-02
 Coeff-Com:  0.100D+01
 Coeff-En:   0.100D+01
 Coeff:      0.100D+01
 Gap=     0.552 Goal=   None    Shift=    0.000
 GapD=    0.552 DampG=2.000 DampE=1.000 DampFc=2.0000 IDamp=-1.
 RMSDP=1.93D-03 MaxDP=3.42D-02              OVMax= 3.19D-02

 Cycle   2  Pass 0  IDiag  1:
 E= -283.900878364980     Delta-E=       -0.008241348855 Rises=F Damp=F
 DIIS: error= 3.16D-03 at cycle   2 NSaved=   2.
 NSaved= 2 IEnMin= 2 EnMin= -283.900878364980     IErMin= 2 ErrMin= 3.16D-03
 ErrMax= 3.16D-03  0.00D+00 EMaxC= 1.00D-01 BMatC= 1.04D-03 BMatP= 7.69D-03
 IDIUse=3 WtCom= 9.68D-01 WtEn= 3.16D-02
 Coeff-Com:  0.163D+00 0.837D+00
 Coeff-En:   0.000D+00 0.100D+01
 Coeff:      0.158D+00 0.842D+00
 Gap=     0.178 Goal=   None    Shift=    0.000
 RMSDP=9.80D-04 MaxDP=2.19D-02 DE=-8.24D-03 OVMax= 4.26D-02

 Cycle   3  Pass 0  IDiag  1:
 E= -283.897975076043     Delta-E=        0.002903288937 Rises=F Damp=F
 DIIS: error= 7.36D-03 at cycle   3 NSaved=   3.
 NSaved= 3 IEnMin= 2 EnMin= -283.900878364980     IErMin= 2 ErrMin= 3.16D-03
 ErrMax= 7.36D-03  0.00D+00 EMaxC= 1.00D-01 BMatC= 4.60D-03 BMatP= 1.04D-03
 IDIUse=3 WtCom= 1.04D-01 WtEn= 8.96D-01
 Coeff-Com:  0.322D-01 0.667D+00 0.301D+00
 Coeff-En:   0.000D+00 0.750D+00 0.250D+00
 Coeff:      0.336D-02 0.741D+00 0.256D+00
 Gap=     0.182 Goal=   None    Shift=    0.000
 RMSDP=5.59D-04 MaxDP=1.33D-02 DE= 2.90D-03 OVMax= 2.62D-02

 Cycle   4  Pass 0  IDiag  1:
 E= -283.901567549504     Delta-E=       -0.003592473461 Rises=F Damp=F
 DIIS: error= 9.83D-04 at cycle   4 NSaved=   4.
 NSaved= 4 IEnMin= 4 EnMin= -283.901567549504     IErMin= 4 ErrMin= 9.83D-04
 ErrMax= 9.83D-04  0.00D+00 EMaxC= 1.00D-01 BMatC= 1.94D-04 BMatP= 1.04D-03
 IDIUse=3 WtCom= 9.90D-01 WtEn= 9.83D-03
 Coeff-Com:  0.350D-02 0.394D+00 0.984D-01 0.504D+00
 Coeff-En:   0.000D+00 0.199D+00 0.000D+00 0.801D+00
 Coeff:      0.347D-02 0.392D+00 0.975D-01 0.507D+00
 Gap=     0.182 Goal=   None    Shift=    0.000
 RMSDP=1.57D-04 MaxDP=3.95D-03 DE=-3.59D-03 OVMax= 4.06D-03

 Cycle   5  Pass 0  IDiag  1:
 E= -283.901736136549     Delta-E=       -0.000168587045 Rises=F Damp=F
 DIIS: error= 2.08D-04 at cycle   5 NSaved=   5.
 NSaved= 5 IEnMin= 5 EnMin= -283.901736136549     IErMin= 5 ErrMin= 2.08D-04
 ErrMax= 2.08D-04  0.00D+00 EMaxC= 1.00D-01 BMatC= 7.34D-06 BMatP= 1.94D-04
 IDIUse=3 WtCom= 9.98D-01 WtEn= 2.08D-03
 Coeff-Com:  0.994D-03 0.184D+00 0.376D-01 0.295D+00 0.483D+00
 Coeff-En:   0.000D+00 0.000D+00 0.000D+00 0.000D+00 0.100D+01
 Coeff:      0.992D-03 0.184D+00 0.375D-01 0.294D+00 0.484D+00
 Gap=     0.182 Goal=   None    Shift=    0.000
 RMSDP=2.89D-05 MaxDP=6.20D-04 DE=-1.69D-04 OVMax= 8.72D-04

 Cycle   6  Pass 0  IDiag  1:
 E= -283.901740925810     Delta-E=       -0.000004789262 Rises=F Damp=F
 DIIS: error= 1.11D-04 at cycle   6 NSaved=   6.
 NSaved= 6 IEnMin= 6 EnMin= -283.901740925810     IErMin= 6 ErrMin= 1.11D-04
 ErrMax= 1.11D-04  0.00D+00 EMaxC= 1.00D-01 BMatC= 1.15D-06 BMatP= 7.34D-06
 IDIUse=3 WtCom= 9.99D-01 WtEn= 1.11D-03
 Coeff-Com:  0.384D-03 0.628D-01 0.913D-02 0.124D+00 0.318D+00 0.486D+00
 Coeff-En:   0.000D+00 0.000D+00 0.000D+00 0.000D+00 0.123D+00 0.877D+00
 Coeff:      0.384D-03 0.627D-01 0.912D-02 0.123D+00 0.318D+00 0.487D+00
 Gap=     0.182 Goal=   None    Shift=    0.000
 RMSDP=1.37D-05 MaxDP=3.14D-04 DE=-4.79D-06 OVMax= 3.08D-04

 Cycle   7  Pass 0  IDiag  1:
 E= -283.901741799185     Delta-E=       -0.000000873375 Rises=F Damp=F
 DIIS: error= 1.88D-05 at cycle   7 NSaved=   7.
 NSaved= 7 IEnMin= 7 EnMin= -283.901741799185     IErMin= 7 ErrMin= 1.88D-05
 ErrMax= 1.88D-05  0.00D+00 EMaxC= 1.00D-01 BMatC= 3.59D-08 BMatP= 1.15D-06
 IDIUse=1 WtCom= 1.00D+00 WtEn= 0.00D+00
 Coeff-Com:  0.751D-04 0.190D-01 0.153D-02 0.423D-01 0.124D+00 0.240D+00
 Coeff-Com:  0.573D+00
 Coeff:      0.751D-04 0.190D-01 0.153D-02 0.423D-01 0.124D+00 0.240D+00
 Coeff:      0.573D+00
 Gap=     0.182 Goal=   None    Shift=    0.000
 RMSDP=2.26D-06 MaxDP=6.39D-05 DE=-8.73D-07 OVMax= 5.06D-05

 Initial convergence to 1.0D-05 achieved.  Increase integral accuracy.
 Cycle   8  Pass 1  IDiag  1:
 E= -283.901779049914     Delta-E=       -0.000037250729 Rises=F Damp=F
 DIIS: error= 2.14D-05 at cycle   1 NSaved=   1.
 NSaved= 1 IEnMin= 1 EnMin= -283.901779049914     IErMin= 1 ErrMin= 2.14D-05
 ErrMax= 2.14D-05  0.00D+00 EMaxC= 1.00D-01 BMatC= 2.92D-08 BMatP= 2.92D-08
 IDIUse=1 WtCom= 1.00D+00 WtEn= 0.00D+00
 Coeff-Com:  0.100D+01
 Coeff:      0.100D+01
 Gap=     0.182 Goal=   None    Shift=    0.000
 RMSDP=2.26D-06 MaxDP=6.39D-05 DE=-3.73D-05 OVMax= 1.21D-04

 Cycle   9  Pass 1  IDiag  1:
 E= -283.901779091804     Delta-E=       -0.000000041890 Rises=F Damp=F
 DIIS: error= 8.53D-06 at cycle   2 NSaved=   2.
 NSaved= 2 IEnMin= 2 EnMin= -283.901779091804     IErMin= 2 ErrMin= 8.53D-06
 ErrMax= 8.53D-06  0.00D+00 EMaxC= 1.00D-01 BMatC= 6.97D-09 BMatP= 2.92D-08
 IDIUse=1 WtCom= 1.00D+00 WtEn= 0.00D+00
 Coeff-Com:  0.254D+00 0.746D+00
 Coeff:      0.254D+00 0.746D+00
 Gap=     0.182 Goal=   None    Shift=    0.000
 RMSDP=1.51D-06 MaxDP=4.81D-05 DE=-4.19D-08 OVMax= 3.46D-05

 Cycle  10  Pass 1  IDiag  1:
 E= -283.901779093349     Delta-E=       -0.000000001544 Rises=F Damp=F
 DIIS: error= 7.28D-06 at cycle   3 NSaved=   3.
 NSaved= 3 IEnMin= 3 EnMin= -283.901779093349     IErMin= 3 ErrMin= 7.28D-06
 ErrMax= 7.28D-06  0.00D+00 EMaxC= 1.00D-01 BMatC= 5.48D-09 BMatP= 6.97D-09
 IDIUse=1 WtCom= 1.00D+00 WtEn= 0.00D+00
 Coeff-Com:  0.860D-02 0.468D+00 0.523D+00
 Coeff:      0.860D-02 0.468D+00 0.523D+00
 Gap=     0.182 Goal=   None    Shift=    0.000
 RMSDP=8.44D-07 MaxDP=2.25D-05 DE=-1.54D-09 OVMax= 1.85D-05

 Cycle  11  Pass 1  IDiag  1:
 E= -283.901779098156     Delta-E=       -0.000000004808 Rises=F Damp=F
 DIIS: error= 2.50D-06 at cycle   4 NSaved=   4.
 NSaved= 4 IEnMin= 4 EnMin= -283.901779098156     IErMin= 4 ErrMin= 2.50D-06
 ErrMax= 2.50D-06  0.00D+00 EMaxC= 1.00D-01 BMatC= 7.36D-10 BMatP= 5.48D-09
 IDIUse=1 WtCom= 1.00D+00 WtEn= 0.00D+00
 Coeff-Com: -0.191D-02 0.320D+00 0.383D+00 0.299D+00
 Coeff:     -0.191D-02 0.320D+00 0.383D+00 0.299D+00
 Gap=     0.182 Goal=   None    Shift=    0.000
 RMSDP=2.99D-07 MaxDP=7.81D-06 DE=-4.81D-09 OVMax= 1.18D-05

 Cycle  12  Pass 1  IDiag  1:
 E= -283.901779098718     Delta-E=       -0.000000000562 Rises=F Damp=F
 DIIS: error= 6.15D-07 at cycle   5 NSaved=   5.
 NSaved= 5 IEnMin= 5 EnMin= -283.901779098718     IErMin= 5 ErrMin= 6.15D-07
 ErrMax= 6.15D-07  0.00D+00 EMaxC= 1.00D-01 BMatC= 3.23D-11 BMatP= 7.36D-10
 IDIUse=1 WtCom= 1.00D+00 WtEn= 0.00D+00
 Coeff-Com: -0.269D-02 0.152D+00 0.188D+00 0.189D+00 0.474D+00
 Coeff:     -0.269D-02 0.152D+00 0.188D+00 0.189D+00 0.474D+00
 Gap=     0.182 Goal=   None    Shift=    0.000
 RMSDP=7.27D-08 MaxDP=1.56D-06 DE=-5.62D-10 OVMax= 2.83D-06

 Cycle  13  Pass 1  IDiag  1:
 E= -283.901779098737     Delta-E=       -0.000000000020 Rises=F Damp=F
 DIIS: error= 2.68D-07 at cycle   6 NSaved=   6.
 NSaved= 6 IEnMin= 6 EnMin= -283.901779098737     IErMin= 6 ErrMin= 2.68D-07
 ErrMax= 2.68D-07  0.00D+00 EMaxC= 1.00D-01 BMatC= 7.28D-12 BMatP= 3.23D-11
 IDIUse=1 WtCom= 1.00D+00 WtEn= 0.00D+00
 Coeff-Com: -0.129D-02 0.625D-01 0.786D-01 0.870D-01 0.345D+00 0.428D+00
 Coeff:     -0.129D-02 0.625D-01 0.786D-01 0.870D-01 0.345D+00 0.428D+00
 Gap=     0.182 Goal=   None    Shift=    0.000
 RMSDP=2.50D-08 MaxDP=7.03D-07 DE=-1.96D-11 OVMax= 1.09D-06

 Cycle  14  Pass 1  IDiag  1:
 E= -283.901779098742     Delta-E=       -0.000000000005 Rises=F Damp=F
 DIIS: error= 3.55D-08 at cycle   7 NSaved=   7.
 NSaved= 7 IEnMin= 7 EnMin= -283.901779098742     IErMin= 7 ErrMin= 3.55D-08
 ErrMax= 3.55D-08  0.00D+00 EMaxC= 1.00D-01 BMatC= 2.68D-13 BMatP= 7.28D-12
 IDIUse=1 WtCom= 1.00D+00 WtEn= 0.00D+00
 Coeff-Com: -0.522D-03 0.241D-01 0.303D-01 0.344D-01 0.161D+00 0.240D+00
 Coeff-Com:  0.510D+00
 Coeff:     -0.522D-03 0.241D-01 0.303D-01 0.344D-01 0.161D+00 0.240D+00
 Coeff:      0.510D+00
 Gap=     0.182 Goal=   None    Shift=    0.000
 RMSDP=5.77D-09 MaxDP=1.69D-07 DE=-4.89D-12 OVMax= 1.59D-07

 SCF Done:  E(RPBE-PBE) =  -283.901779099     A.U. after   14 cycles
            NFock= 14  Conv=0.58D-08     -V/T= 2.0086
 KE= 2.814938917984D+02 PE=-1.022717933915D+03 EE= 2.787843943266D+02
 Leave Link  502 at Fri Sep 11 13:03:19 2015, MaxMem=    33554432 cpu:        13.9
 (Enter /usr/local/research/Gaussian09/g09-revD.01/g09/l508.exe)
 QCSCF skips out because SCF is already converged.
 Leave Link  508 at Fri Sep 11 13:03:19 2015, MaxMem=    33554432 cpu:         0.0
 (Enter /usr/local/research/Gaussian09/g09-revD.01/g09/l701.exe)
 Compute integral first derivatives.
 ... and contract with generalized density number  0.
   2 Symmetry operations used in ECPInt.
 ECPInt:  NShTT=    1035 NPrTT=    3735 LenC2=    1033 LenP2D=    3193.
 LDataN:  DoStor=T MaxTD1= 5 Len=  102
 Leave Link  701 at Fri Sep 11 13:03:19 2015, MaxMem=    33554432 cpu:         0.3
 (Enter /usr/local/research/Gaussian09/g09-revD.01/g09/l702.exe)
 L702 exits ... SP integral derivatives will be done elsewhere.
 Leave Link  702 at Fri Sep 11 13:03:19 2015, MaxMem=    33554432 cpu:         0.1
 (Enter /usr/local/research/Gaussian09/g09-revD.01/g09/l703.exe)
 Compute integral first derivatives, UseDBF=F ICtDFT=           0.
 Integral derivatives from FoFJK, PRISM(SPDF).
 Calling FoFJK, ICntrl=      2527 FMM=F ISym2X=1 I1Cent= 0 IOpClX= 0 NMat=1 NMatS=1 NMatT=0.
 FoFJK:  IHMeth= 1 ICntrl=    2527 DoSepK=F KAlg= 0 I1Cent=   0 FoldK=F
 IRaf=         0 NMat=   1 IRICut=       1 DoRegI=T DoRafI=F ISym2E= 1.
 FoFCou: FMM=F IPFlag=           0 FMFlag=      100000 FMFlg1=         800
         NFxFlg=           0 DoJE=F BraDBF=F KetDBF=F FulRan=T
         wScrn=  0.000000 ICntrl=    2527 IOpCl=  0 I1Cent=           0 NGrid=           0
         NMat0=    1 NMatS0=      1 NMatT0=    0 NMatD0=    1 NMtDS0=    0 NMtDT0=    0
 Petite list used in FoFCou.
 Leave Link  703 at Fri Sep 11 13:03:24 2015, MaxMem=    33554432 cpu:         4.8
 (Enter /usr/local/research/Gaussian09/g09-revD.01/g09/l716.exe)
 Dipole        = 4.33405657D-01-2.11971242D+00-1.07336015D-16
 ***** Axes restored to original set *****
 -------------------------------------------------------------------
 Center     Atomic                   Forces (Hartrees/Bohr)
 Number     Number              X              Y              Z
 -------------------------------------------------------------------
      1        7          -0.001621482    0.026361271    0.000000000
      2        6           0.010809121   -0.012807465    0.000000000
      3        1          -0.000522521   -0.009360211    0.001022089
      4        1          -0.000522521   -0.009360211   -0.001022089
      5        6           0.014674937    0.029085572    0.000000000
      6        1          -0.003779400    0.000223965   -0.000115453
      7        1          -0.003779400    0.000223965    0.000115453
      8        8           0.003818289   -0.015993849    0.000000000
      9        8          -0.020215565    0.007744442    0.000000000
     10        1           0.001138543   -0.016117479    0.000000000
 -------------------------------------------------------------------
 Cartesian Forces:  Max     0.029085572 RMS     0.010402552
 Leave Link  716 at Fri Sep 11 13:03:24 2015, MaxMem=    33554432 cpu:         0.1
 (Enter /usr/local/research/Gaussian09/g09-revD.01/g09/l103.exe)

 GradGradGradGradGradGradGradGradGradGradGradGradGradGradGradGradGradGrad
 Berny optimization.
 Using GEDIIS/GDIIS optimizer.
 FormGI is forming the generalized inverse of G from B-inverse, IUseBI=4.
 Internal  Forces:  Max     0.018857718 RMS     0.006688700
 Search for a local minimum.
 Step number   2 out of a maximum of   46
 All quantities printed in internal units (Hartrees-Bohrs-Radians)
 RMS Force = .66887D-02 SwitMx=.10000D-02 MixMth= 1
 Mixed Optimization -- RFO/linear search
 Update second derivatives using D2CorX and points    1    2
 DE= -2.03D-02 DEPred=-2.02D-02 R= 1.01D+00
 TightC=F SS=  1.41D+00  RLast= 3.11D-01 DXNew= 5.0454D-01 9.3213D-01
 Trust test= 1.01D+00 RLast= 3.11D-01 DXMaxT set to 5.05D-01
 ITU=  1  0
 Use linear search instead of GDIIS.
     Eigenvalues ---    0.00475   0.00673   0.01044   0.01295   0.03663
     Eigenvalues ---    0.05060   0.06532   0.10213   0.13258   0.15523
     Eigenvalues ---    0.16000   0.16085   0.22566   0.23209   0.26015
     Eigenvalues ---    0.30180   0.34094   0.34168   0.38007   0.43817
     Eigenvalues ---    0.46978   0.47057   0.54444   0.79412
 RFO step:  Lambda=-4.45599834D-03 EMin= 4.75278849D-03
 Quartic linear search produced a step of  0.30157.
 Iteration  1 RMS(Cart)=  0.06979229 RMS(Int)=  0.00236546
 Iteration  2 RMS(Cart)=  0.00296710 RMS(Int)=  0.00041136
 Iteration  3 RMS(Cart)=  0.00000845 RMS(Int)=  0.00041132
 Iteration  4 RMS(Cart)=  0.00000001 RMS(Int)=  0.00041132
 ITry= 1 IFail=0 DXMaxC= 2.53D-01 DCOld= 1.00D+10 DXMaxT= 5.05D-01 DXLimC= 3.00D+00 Rises=F
 ClnCor:  largest displacement from symmetrization is 7.96D-12 for atom     9.
 Variable       Old X    -DE/DX   Delta X   Delta X   Delta X     New X
                                 (Linear)    (Quad)   (Total)
    R1        2.80377  -0.00752   0.01978  -0.04196  -0.02218   2.78159
    R2        1.92101   0.00421   0.00737   0.00543   0.01281   1.93382
    R3        1.92101   0.00421   0.00737   0.00543   0.01281   1.93382
    R4        2.87767   0.00395   0.00047   0.01633   0.01680   2.89447
    R5        2.08963   0.00231   0.00577   0.00364   0.00941   2.09904
    R6        2.08963   0.00231   0.00577   0.00364   0.00941   2.09904
    R7        2.30923  -0.01577  -0.02074  -0.00943  -0.03017   2.27906
    R8        2.58828  -0.01886  -0.03438  -0.03014  -0.06452   2.52376
    R9        1.85180   0.01598   0.01137   0.02796   0.03933   1.89113
    A1        1.94135   0.00542   0.03128  -0.00899   0.02138   1.96274
    A2        1.94135   0.00542   0.03128  -0.00899   0.02138   1.96274
    A3        1.99634  -0.00886  -0.03713  -0.06104  -0.09974   1.89661
    A4        1.96311  -0.00702   0.01093  -0.04849  -0.03740   1.92571
    A5        1.94700   0.00270   0.01017   0.00746   0.01777   1.96476
    A6        1.94700   0.00270   0.01017   0.00746   0.01777   1.96476
    A7        1.85957   0.00225  -0.01134   0.02504   0.01351   1.87308
    A8        1.85957   0.00225  -0.01134   0.02504   0.01351   1.87308
    A9        1.88229  -0.00284  -0.01015  -0.01419  -0.02501   1.85728
   A10        2.15403   0.00192   0.01798  -0.00705   0.01094   2.16496
   A11        2.01069  -0.01461  -0.02524  -0.05089  -0.07613   1.93456
   A12        2.11847   0.01269   0.00726   0.05794   0.06520   2.18366
   A13        1.81412  -0.00438  -0.02925  -0.00326  -0.03251   1.78160
    D1       -2.01795  -0.00157  -0.00178  -0.04831  -0.04970  -2.06764
    D2        0.07046  -0.00163  -0.00211  -0.04441  -0.04615   0.02431
    D3        2.17683  -0.00151  -0.00145  -0.05221  -0.05325   2.12359
    D4        2.01795   0.00157   0.00178   0.04831   0.04970   2.06764
    D5       -2.17683   0.00151   0.00145   0.05221   0.05325  -2.12359
    D6       -0.07046   0.00163   0.00211   0.04441   0.04615  -0.02431
    D7        3.14159   0.00000   0.00000   0.00000   0.00000   3.14159
    D8        0.00000   0.00000   0.00000   0.00000   0.00000   0.00000
    D9        1.00310  -0.00057  -0.01185   0.00356  -0.00795   0.99515
   D10       -2.13849  -0.00057  -0.01185   0.00356  -0.00795  -2.14644
   D11       -1.00310   0.00057   0.01185  -0.00356   0.00795  -0.99515
   D12        2.13849   0.00057   0.01185  -0.00356   0.00795   2.14644
   D13        0.00000   0.00000   0.00000   0.00000   0.00000   0.00000
   D14        3.14159   0.00000   0.00000   0.00000   0.00000   3.14159
         Item               Value     Threshold  Converged?
 Maximum Force            0.018858     0.000450     NO 
 RMS     Force            0.006689     0.000300     NO 
 Maximum Displacement     0.252551     0.001800     NO 
 RMS     Displacement     0.070760     0.001200     NO 
 Predicted change in Energy=-3.660195D-03
 Lowest energy point so far.  Saving SCF results.
 GradGradGradGradGradGradGradGradGradGradGradGradGradGradGradGradGradGrad

 Leave Link  103 at Fri Sep 11 13:03:24 2015, MaxMem=    33554432 cpu:         0.0
 (Enter /usr/local/research/Gaussian09/g09-revD.01/g09/l202.exe)
                          Input orientation:                          
 ---------------------------------------------------------------------
 Center     Atomic      Atomic             Coordinates (Angstroms)
 Number     Number       Type             X           Y           Z
 ---------------------------------------------------------------------
      1          7           0        0.248197   -1.724055    0.000000
      2          6           0       -0.759425   -0.651047    0.000000
      3          1           0        0.187172   -2.317592   -0.831385
      4          1           0        0.187172   -2.317592    0.831385
      5          6           0       -0.076825    0.720130    0.000000
      6          1           0       -1.423556   -0.689813   -0.889507
      7          1           0       -1.423556   -0.689813    0.889507
      8          8           0       -0.670547    1.769887    0.000000
      9          8           0        1.252267    0.589273    0.000000
     10          1           0        1.364780   -0.405123    0.000000
 ---------------------------------------------------------------------
                    Distance matrix (angstroms):
                    1          2          3          4          5
     1  N    0.000000
     2  C    1.471954   0.000000
     3  H    1.023334   2.089167   0.000000
     4  H    1.023334   2.089167   1.662770   0.000000
     5  C    2.465700   1.531688   3.160482   3.160482   0.000000
     6  H    2.157693   1.110764   2.290740   2.864538   2.143093
     7  H    2.157693   1.110764   2.864538   2.290740   2.143093
     8  O    3.612716   2.422565   4.258447   4.258447   1.206025
     9  O    2.521833   2.363324   3.205542   3.205542   1.335518
    10  H    1.728102   2.138393   2.394890   2.394890   1.828776
                    6          7          8          9         10
     6  H    0.000000
     7  H    1.779015   0.000000
     8  O    2.721832   2.721832   0.000000
     9  O    3.096339   3.096339   2.256339   0.000000
    10  H    2.940594   2.940594   2.978797   1.000742   0.000000
 Stoichiometry    C2H5NO2
 Framework group  CS[SG(C2HNO2),X(H4)]
 Deg. of freedom    15
 Full point group                 CS      NOp   2
 RotChk:  IX=0 Diff= 4.24D-03
 Largest Abelian subgroup         CS      NOp   2
 Largest concise Abelian subgroup CS      NOp   2
                         Standard orientation:                         
 ---------------------------------------------------------------------
 Center     Atomic      Atomic             Coordinates (Angstroms)
 Number     Number       Type             X           Y           Z
 ---------------------------------------------------------------------
      1          7           0       -0.033406   -1.760373    0.000000
      2          6           0        0.840114   -0.575632    0.000000
      3          1           0        0.097450   -2.342513    0.831385
      4          1           0        0.097450   -2.342513   -0.831385
      5          6           0        0.000000    0.705101    0.000000
      6          1           0        1.504164   -0.535509    0.889507
      7          1           0        1.504164   -0.535509   -0.889507
      8          8           0        0.465283    1.817759    0.000000
      9          8           0       -1.304257    0.417833    0.000000
     10          1           0       -1.298267   -0.582891    0.000000
 ---------------------------------------------------------------------
 Rotational constants (GHZ):     10.4521138      4.0938439      3.0476780
 Leave Link  202 at Fri Sep 11 13:03:24 2015, MaxMem=    33554432 cpu:         0.0
 (Enter /usr/local/research/Gaussian09/g09-revD.01/g09/l301.exe)
 Standard basis: def2SVP (5D, 7F)
 Ernie: Thresh=  0.10000D-02 Tol=  0.10000D-05 Strict=F.
 There are    69 symmetry adapted cartesian basis functions of A'  symmetry.
 There are    31 symmetry adapted cartesian basis functions of A"  symmetry.
 There are    64 symmetry adapted basis functions of A'  symmetry.
 There are    31 symmetry adapted basis functions of A"  symmetry.
    95 basis functions,   160 primitive gaussians,   100 cartesian basis functions
    20 alpha electrons       20 beta electrons
       nuclear repulsion energy       180.9689482271 Hartrees.
 IExCor= 1009 DFT=T Ex=PBE Corr=PBE ExCW=0 ScaHFX=  0.000000
 ScaDFX=  1.000000  1.000000  1.000000  1.000000 ScalE2=  1.000000  1.000000
 IRadAn=      0 IRanWt=     -1 IRanGd=            0 ICorTp=0 IEmpDi=  4
 NAtoms=   10 NActive=   10 NUniq=    8 SFac= 1.56D+00 NAtFMM=   60 NAOKFM=F Big=F
 Integral buffers will be    131072 words long.
 Raffenetti 2 integral format.
 Two-electron integral symmetry is turned on.
 Leave Link  301 at Fri Sep 11 13:03:24 2015, MaxMem=    33554432 cpu:         0.1
 (Enter /usr/local/research/Gaussian09/g09-revD.01/g09/l302.exe)
 NPDir=0 NMtPBC=     1 NCelOv=     1 NCel=       1 NClECP=     1 NCelD=      1
         NCelK=      1 NCelE2=     1 NClLst=     1 CellRange=     0.0.
 One-electron integrals computed using PRISM.
 One-electron integral symmetry used in STVInt
   2 Symmetry operations used in ECPInt.
 ECPInt:  NShTT=    1035 NPrTT=    3735 LenC2=    1033 LenP2D=    3200.
 LDataN:  DoStor=T MaxTD1= 4 Len=   56
 NBasis=    95 RedAO= T EigKep=  3.45D-03  NBF=    64    31
 NBsUse=    95 1.00D-06 EigRej= -1.00D+00 NBFU=    64    31
 Precomputing XC quadrature grid using
 IXCGrd= 4 IRadAn=           0 IRanWt=          -1 IRanGd=           0 AccXCQ= 0.00D+00.
 Generated NRdTot=       0 NPtTot=           0 NUsed=           0 NTot=          32
 NSgBfM=   100   100   100   100   100 MxSgAt=    10 MxSgA2=    10.
 Leave Link  302 at Fri Sep 11 13:03:25 2015, MaxMem=    33554432 cpu:         0.5
 (Enter /usr/local/research/Gaussian09/g09-revD.01/g09/l303.exe)
 DipDrv:  MaxL=1.
 Leave Link  303 at Fri Sep 11 13:03:25 2015, MaxMem=    33554432 cpu:         0.1
 (Enter /usr/local/research/Gaussian09/g09-revD.01/g09/l401.exe)
 Initial guess from the checkpoint file:  "2-ccc.chk"
 B after Tr=     0.000000    0.000000    0.000000
         Rot=    1.000000    0.000000    0.000000   -0.000078 Ang=  -0.01 deg.
 Guess basis will be translated and rotated to current coordinates.
 JPrj=2 DoOrth=T DoCkMO=T.
 Initial guess orbital symmetries:
       Occupied  (A') (A') (A') (A') (A') (A') (A') (A') (A') (A')
                 (A") (A') (A') (A") (A') (A") (A') (A") (A') (A')
       Virtual   (A') (A') (A') (A') (A') (A') (A') (A') (A') (A')
                 (A') (A') (A') (A') (A') (A') (A') (A') (A') (A')
                 (A') (A') (A') (A') (A') (A') (A') (A') (A') (A')
                 (A') (A') (A') (A') (A') (A') (A') (A') (A') (A')
                 (A') (A') (A') (A') (A') (A') (A') (A') (A") (A")
                 (A") (A") (A") (A") (A") (A") (A") (A") (A") (A")
                 (A") (A") (A") (A") (A") (A") (A") (A") (A") (A")
                 (A") (A") (A") (A") (A")
 The electronic state of the initial guess is 1-A'.
 Generating alternative initial guess.
 ExpMin= 1.22D-01 ExpMax= 2.27D+03 ExpMxC= 3.41D+02 IAcc=1 IRadAn=         1 AccDes= 0.00D+00
 Harris functional with IExCor= 1009 and IRadAn=       1 diagonalized for initial guess.
 HarFok:  IExCor= 1009 AccDes= 0.00D+00 IRadAn=         1 IDoV= 1 UseB2=F ITyADJ=14
 ICtDFT=  3500011 ScaDFX=  1.000000  1.000000  1.000000  1.000000
 FoFCou: FMM=F IPFlag=           0 FMFlag=      100000 FMFlg1=           0
         NFxFlg=           0 DoJE=T BraDBF=F KetDBF=T FulRan=T
         wScrn=  0.000000 ICntrl=     500 IOpCl=  0 I1Cent=   200000004 NGrid=           0
         NMat0=    1 NMatS0=      1 NMatT0=    0 NMatD0=    1 NMtDS0=    0 NMtDT0=    0
 Petite list used in FoFCou.
 Harris En= -283.975270226470    
 Leave Link  401 at Fri Sep 11 13:03:26 2015, MaxMem=    33554432 cpu:         0.8
 (Enter /usr/local/research/Gaussian09/g09-revD.01/g09/l502.exe)
 Closed shell SCF:
 Using DIIS extrapolation, IDIIS=  1040.
 Integral symmetry usage will be decided dynamically.
 Keep J ints in memory in symmetry-blocked form, NReq=15735152.
 IVT=       37446 IEndB=       37446 NGot=    33554432 MDV=    28218456
 LenX=    28218456 LenY=    28208015
 Requested convergence on RMS density matrix=1.00D-08 within  64 cycles.
 Requested convergence on MAX density matrix=1.00D-06.
 Requested convergence on             energy=1.00D-06.
 No special actions if energy rises.
 FoFCou: FMM=F IPFlag=           0 FMFlag=           0 FMFlg1=           0
         NFxFlg=           0 DoJE=F BraDBF=F KetDBF=F FulRan=T
         wScrn=  0.000000 ICntrl=     600 IOpCl=  0 I1Cent=           0 NGrid=           0
         NMat0=    1 NMatS0=   4560 NMatT0=    0 NMatD0=    1 NMtDS0=    0 NMtDT0=    0
 Petite list used in FoFCou.
 Integral accuracy reduced to 1.0D-05 until final iterations.

 Cycle   1  Pass 0  IDiag  1:
 E= -283.897975177904    
 DIIS: error= 4.81D-03 at cycle   1 NSaved=   1.
 NSaved= 1 IEnMin= 1 EnMin= -283.897975177904     IErMin= 1 ErrMin= 4.81D-03
 ErrMax= 4.81D-03  0.00D+00 EMaxC= 1.00D-01 BMatC= 4.80D-03 BMatP= 4.80D-03
 IDIUse=3 WtCom= 9.52D-01 WtEn= 4.81D-02
 Coeff-Com:  0.100D+01
 Coeff-En:   0.100D+01
 Coeff:      0.100D+01
 Gap=     0.572 Goal=   None    Shift=    0.000
 GapD=    0.572 DampG=2.000 DampE=1.000 DampFc=2.0000 IDamp=-1.
 RMSDP=1.61D-03 MaxDP=2.37D-02              OVMax= 2.91D-02

 Cycle   2  Pass 0  IDiag  1:
 E= -283.904045690396     Delta-E=       -0.006070512492 Rises=F Damp=F
 DIIS: error= 2.79D-03 at cycle   2 NSaved=   2.
 NSaved= 2 IEnMin= 2 EnMin= -283.904045690396     IErMin= 2 ErrMin= 2.79D-03
 ErrMax= 2.79D-03  0.00D+00 EMaxC= 1.00D-01 BMatC= 7.60D-04 BMatP= 4.80D-03
 IDIUse=3 WtCom= 9.72D-01 WtEn= 2.79D-02
 Coeff-Com:  0.172D+00 0.828D+00
 Coeff-En:   0.000D+00 0.100D+01
 Coeff:      0.167D+00 0.833D+00
 Gap=     0.186 Goal=   None    Shift=    0.000
 RMSDP=7.78D-04 MaxDP=1.75D-02 DE=-6.07D-03 OVMax= 3.65D-02

 Cycle   3  Pass 0  IDiag  1:
 E= -283.901893235837     Delta-E=        0.002152454559 Rises=F Damp=F
 DIIS: error= 6.26D-03 at cycle   3 NSaved=   3.
 NSaved= 3 IEnMin= 2 EnMin= -283.904045690396     IErMin= 2 ErrMin= 2.79D-03
 ErrMax= 6.26D-03  0.00D+00 EMaxC= 1.00D-01 BMatC= 3.46D-03 BMatP= 7.60D-04
 IDIUse=3 WtCom= 1.12D-01 WtEn= 8.88D-01
 Coeff-Com:  0.198D-01 0.674D+00 0.306D+00
 Coeff-En:   0.000D+00 0.750D+00 0.250D+00
 Coeff:      0.223D-02 0.742D+00 0.256D+00
 Gap=     0.190 Goal=   None    Shift=    0.000
 RMSDP=4.43D-04 MaxDP=1.04D-02 DE= 2.15D-03 OVMax= 2.11D-02

 Cycle   4  Pass 0  IDiag  1:
 E= -283.904528917714     Delta-E=       -0.002635681877 Rises=F Damp=F
 DIIS: error= 1.10D-03 at cycle   4 NSaved=   4.
 NSaved= 4 IEnMin= 4 EnMin= -283.904528917714     IErMin= 4 ErrMin= 1.10D-03
 ErrMax= 1.10D-03  0.00D+00 EMaxC= 1.00D-01 BMatC= 1.61D-04 BMatP= 7.60D-04
 IDIUse=3 WtCom= 9.89D-01 WtEn= 1.10D-02
 Coeff-Com:  0.823D-03 0.391D+00 0.762D-01 0.532D+00
 Coeff-En:   0.000D+00 0.227D+00 0.000D+00 0.773D+00
[...]
         8         0.0000      0.0000     -0.0427
         9         0.0000      0.0000     -0.8559
        10        -0.7796     -0.4025      0.0000
        11         0.0000      0.0000      0.0955
        12         0.0572     -0.2552      0.0000
        13         0.3017     -0.0264      0.0000
        14         0.0000      0.0000     -0.7982
        15         0.0000      0.0000     -0.4209
        16        -0.3220      0.6613      0.0000
        17         0.1337      0.0965      0.0000
        18         0.0000      0.0000      0.1023
        19         0.0000      0.0000     -0.1080
        20        -0.4449      0.5720      0.0000
        21         0.0683     -0.1568      0.0000
        22         0.0000      0.0000      0.3255
        23        -0.9470      0.5999      0.0000
        24         0.0000      0.0000      0.0792
 Ground to excited state transition velocity quadrupole moments (Au):
       state          XX          YY          ZZ          XY          XZ          YZ
         1         0.0000      0.0000      0.0000      0.0000     -0.0903     -0.0382
         2        -0.1135      0.4003      0.0096     -0.1215      0.0000      0.0000
         3         0.0000      0.0000      0.0000      0.0000     -0.0264      0.0729
         4         0.0000      0.0000      0.0000      0.0000      0.0533      0.0616
         5         0.0000      0.0000      0.0000      0.0000      0.0713      0.1646
         6        -0.1915      0.3854     -0.1039     -0.4251      0.0000      0.0000
         7        -0.2411     -0.3141     -0.0401      0.2127      0.0000      0.0000
         8        -0.2941      0.4726     -0.0469      0.1570      0.0000      0.0000
         9        -0.1108      0.0035      0.0023      0.0547      0.0000      0.0000
        10         0.0000      0.0000      0.0000      0.0000      0.2181     -0.1675
        11         0.0893      0.0426      0.0839     -0.0169      0.0000      0.0000
        12         0.0000      0.0000      0.0000      0.0000     -0.0074      0.1887
        13         0.0000      0.0000      0.0000      0.0000     -0.0396      0.1667
        14        -0.2583      0.2734     -0.0221      0.3541      0.0000      0.0000
        15        -0.0410     -0.1326     -0.0661      0.2311      0.0000      0.0000
        16         0.0000      0.0000      0.0000      0.0000     -0.3579     -0.1767
        17         0.0000      0.0000      0.0000      0.0000      0.2970     -0.1994
        18        -0.5679      0.5128     -0.2802      0.3446      0.0000      0.0000
        19         0.1464     -0.5320     -0.0364      0.0018      0.0000      0.0000
        20         0.0000      0.0000      0.0000      0.0000     -0.3755     -0.2566
        21         0.0000      0.0000      0.0000      0.0000     -0.1305      0.0855
        22        -0.0584     -0.2286     -0.1141     -0.0265      0.0000      0.0000
        23         0.0000      0.0000      0.0000      0.0000     -0.2338     -0.1430
        24         0.2449     -0.0425      0.1195     -0.1895      0.0000      0.0000
 <0|del|b> * <b|rxdel|0> + <0|del|b> * <b|delr+rdel|0>
 Rotatory Strengths (R) in cgs (10**-40 erg-esu-cm/Gauss)
       state          XX          YY          ZZ    R(velocity)    E-M Angle
         1         0.0000      0.0000      0.0000      0.0000       90.00
         2         0.0000      0.0000      0.0000      0.0000       90.00
         3         0.0000      0.0000      0.0000      0.0000       90.00
         4         0.0000      0.0000      0.0000      0.0000       90.00
         5         0.0000      0.0000      0.0000      0.0000       90.00
         6         0.0000      0.0000      0.0000      0.0000       90.00
         7         0.0000      0.0000      0.0000      0.0000       90.00
         8         0.0000      0.0000      0.0000      0.0000       90.00
         9         0.0000      0.0000      0.0000      0.0000       90.00
        10         0.0000      0.0000      0.0000      0.0000       90.00
        11         0.0000      0.0000      0.0000      0.0000       90.00
        12         0.0000      0.0000      0.0000      0.0000       90.00
        13         0.0000      0.0000      0.0000      0.0000       90.00
        14         0.0000      0.0000      0.0000      0.0000       90.00
        15         0.0000      0.0000      0.0000      0.0000       90.00
        16         0.0000      0.0000      0.0000      0.0000       90.00
        17         0.0000      0.0000      0.0000      0.0000       90.00
        18         0.0000      0.0000      0.0000      0.0000       90.00
        19         0.0000      0.0000      0.0000      0.0000       90.00
        20         0.0000      0.0000      0.0000      0.0000       90.00
        21         0.0000      0.0000      0.0000      0.0000       90.00
        22         0.0000      0.0000      0.0000      0.0000       90.00
        23         0.0000      0.0000      0.0000      0.0000       90.00
        24         0.0000      0.0000      0.0000      0.0000       90.00
 1/2[<0|r|b>*<b|rxdel|0> + (<0|rxdel|b>*<b|r|0>)*]
 Rotatory Strengths (R) in cgs (10**-40 erg-esu-cm/Gauss)
       state          XX          YY          ZZ     R(length)
         1         0.0000      0.0000      0.0000      0.0000
         2         0.0000      0.0000      0.0000      0.0000
         3         0.0000      0.0000      0.0000      0.0000
         4         0.0000      0.0000      0.0000      0.0000
         5         0.0000      0.0000      0.0000      0.0000
         6         0.0000      0.0000      0.0000      0.0000
         7         0.0000      0.0000      0.0000      0.0000
         8         0.0000      0.0000      0.0000      0.0000
         9         0.0000      0.0000      0.0000      0.0000
        10         0.0000      0.0000      0.0000      0.0000
        11         0.0000      0.0000      0.0000      0.0000
        12         0.0000      0.0000      0.0000      0.0000
        13         0.0000      0.0000      0.0000      0.0000
        14         0.0000      0.0000      0.0000      0.0000
        15         0.0000      0.0000      0.0000      0.0000
        16         0.0000      0.0000      0.0000      0.0000
        17         0.0000      0.0000      0.0000      0.0000
        18         0.0000      0.0000      0.0000      0.0000
        19         0.0000      0.0000      0.0000      0.0000
        20         0.0000      0.0000      0.0000      0.0000
        21         0.0000      0.0000      0.0000      0.0000
        22         0.0000      0.0000      0.0000      0.0000
        23         0.0000      0.0000      0.0000      0.0000
        24         0.0000      0.0000      0.0000      0.0000
  1/2[<0|del|b>*<b|r|0> + (<0|r|b>*<b|del|0>)*] (Au)
       state          X           Y           Z        Dip. S.   Osc.(frdel)
         1         0.0000      0.0000     -0.0024      0.0024      0.0016
         2        -0.0012     -0.0304      0.0000      0.0316      0.0211
         3         0.0000      0.0000     -0.0012      0.0012      0.0008
         4         0.0000      0.0000     -0.0004      0.0004      0.0003
         5         0.0000      0.0000      0.0000      0.0000      0.0000
         6         0.0008     -0.0121      0.0000      0.0113      0.0075
         7        -0.0510     -0.0212      0.0000      0.0723      0.0482
         8        -0.0151     -0.0200      0.0000      0.0352      0.0234
         9        -0.0055     -0.0015      0.0000      0.0070      0.0047
        10         0.0000      0.0000      0.0000      0.0000      0.0000
        11        -0.0019     -0.0172      0.0000      0.0191      0.0127
        12         0.0000      0.0000     -0.0001      0.0001      0.0001
        13         0.0000      0.0000     -0.0005      0.0005      0.0004
        14        -0.0247     -0.0513      0.0000      0.0760      0.0506
        15        -0.0519     -0.0249      0.0000      0.0768      0.0512
        16         0.0000      0.0000      0.0000      0.0000      0.0000
        17         0.0000      0.0000     -0.0196      0.0196      0.0131
        18        -0.1047     -0.0303      0.0000      0.1350      0.0900
        19        -0.0089      0.0000      0.0000      0.0090      0.0060
        20         0.0000      0.0000     -0.0020      0.0020      0.0014
        21         0.0000      0.0000      0.0000      0.0000      0.0000
        22        -0.0050     -0.0178      0.0000      0.0228      0.0152
        23         0.0000      0.0000     -0.0290      0.0290      0.0193
        24        -0.0244     -0.0006      0.0000      0.0250      0.0167

 Excitation energies and oscillator strengths:
 
 Excited State   1:      Singlet-A"     5.3303 eV  232.60 nm  f=0.0012  <S**2>=0.000
      20 -> 21         0.70650
 This state for optimization and/or second-order correction.
 Total Energy, E(TD-HF/TD-KS) =  -283.709465627    
 Copying the excited state density for this state as the 1-particle RhoCI density.
 
 Excited State   2:      Singlet-A'     5.5247 eV  224.42 nm  f=0.0172  <S**2>=0.000
      20 -> 22         0.70500
 
 Excited State   3:      Singlet-A"     6.8231 eV  181.71 nm  f=0.0007  <S**2>=0.000
      18 -> 21         0.59384
      19 -> 22        -0.14431
      20 -> 23         0.35537
 
 Excited State   4:      Singlet-A"     6.8508 eV  180.98 nm  f=0.0001  <S**2>=0.000
      19 -> 22         0.67170
      20 -> 23         0.21822
 
 Excited State   5:      Singlet-A"     6.9012 eV  179.66 nm  f=0.0000  <S**2>=0.000
      18 -> 21        -0.38179
      19 -> 22        -0.16684
      20 -> 23         0.57018
 
 Excited State   6:      Singlet-A'     7.2854 eV  170.18 nm  f=0.0057  <S**2>=0.000
      18 -> 22         0.62913
      19 -> 21        -0.14160
      20 -> 24         0.28399
 
 Excited State   7:      Singlet-A'     7.3944 eV  167.67 nm  f=0.0391  <S**2>=0.000
      18 -> 22        -0.28668
      20 -> 24         0.64293
 
 Excited State   8:      Singlet-A'     7.6671 eV  161.71 nm  f=0.0277  <S**2>=0.000
      18 -> 22         0.13121
      19 -> 21         0.52953
      19 -> 23        -0.42545
 
 Excited State   9:      Singlet-A'     8.2951 eV  149.47 nm  f=0.0030  <S**2>=0.000
      19 -> 23        -0.14771
      20 -> 25         0.68833
 
 Excited State  10:      Singlet-A"     8.3213 eV  149.00 nm  f=0.0001  <S**2>=0.000
      17 -> 21         0.70409
 
 Excited State  11:      Singlet-A'     8.4687 eV  146.40 nm  f=0.0119  <S**2>=0.000
      17 -> 22         0.69641
 
 Excited State  12:      Singlet-A"     8.5768 eV  144.56 nm  f=0.0001  <S**2>=0.000
      18 -> 23         0.70462
 
 Excited State  13:      Singlet-A"     8.6854 eV  142.75 nm  f=0.0005  <S**2>=0.000
      19 -> 24         0.70677
 
 Excited State  14:      Singlet-A'     8.7772 eV  141.26 nm  f=0.0558  <S**2>=0.000
      18 -> 24         0.20166
      19 -> 21         0.33844
      19 -> 23         0.49203
      20 -> 25         0.10329
      20 -> 27         0.21372
 
 Excited State  15:      Singlet-A'     9.0843 eV  136.48 nm  f=0.0459  <S**2>=0.000
      18 -> 24         0.66409
      19 -> 21        -0.11387
      19 -> 23        -0.12664
      20 -> 27        -0.10298
 
 Excited State  16:      Singlet-A"     9.1080 eV  136.13 nm  f=0.0000  <S**2>=0.000
      16 -> 22         0.69999
 
 Excited State  17:      Singlet-A"     9.2187 eV  134.49 nm  f=0.0143  <S**2>=0.000
      20 -> 26         0.69802
 
 Excited State  18:      Singlet-A'     9.3638 eV  132.41 nm  f=0.0898  <S**2>=0.000
      14 -> 21         0.16412
      16 -> 21         0.64537
      18 -> 24         0.10729
      18 -> 25        -0.10753
 
 Excited State  19:      Singlet-A'     9.5596 eV  129.70 nm  f=0.0069  <S**2>=0.000
      18 -> 25        -0.16881
      19 -> 21        -0.13894
      19 -> 23        -0.11214
      20 -> 27         0.64386
 
 Excited State  20:      Singlet-A"     9.7113 eV  127.67 nm  f=0.0004  <S**2>=0.000
      15 -> 21         0.17126
      17 -> 23        -0.16437
      19 -> 25         0.66428
 
 Excited State  21:      Singlet-A"     9.7968 eV  126.56 nm  f=0.0002  <S**2>=0.000
      15 -> 21        -0.29028
      17 -> 23         0.60284
      19 -> 25         0.22346
 
 Excited State  22:      Singlet-A'     9.8248 eV  126.20 nm  f=0.0150  <S**2>=0.000
      15 -> 22         0.70082
 
 Excited State  23:      Singlet-A"     9.8841 eV  125.44 nm  f=0.0158  <S**2>=0.000
      15 -> 21         0.61036
      17 -> 23         0.32878
 
 Excited State  24:      Singlet-A'    10.3206 eV  120.13 nm  f=0.0158  <S**2>=0.000
      16 -> 23        -0.12054
      17 -> 24         0.69192
 SavETr:  write IOETrn=   770 NScale= 10 NData=  16 NLR=1 NState=   24 LETran=     442.
 Leave Link  914 at Fri Sep 11 13:09:27 2015, MaxMem=    33554432 cpu:       116.0
 (Enter /usr/local/research/Gaussian09/g09-revD.01/g09/l601.exe)
 Copying SCF densities to generalized density rwf, IOpCl= 0 IROHF=0.

 **********************************************************************

            Population analysis using the SCF density.

 **********************************************************************

 Orbital symmetries:
       Occupied  (A') (A') (A') (A') (A') (A') (A') (A') (A') (A')
                 (A") (A') (A') (A") (A') (A") (A') (A') (A") (A')
       Virtual   (A") (A') (A") (A') (A') (A") (A') (A') (A') (A')
                 (A") (A') (A') (A') (A") (A') (A') (A') (A") (A')
                 (A') (A") (A') (A') (A") (A') (A') (A") (A') (A")
                 (A') (A') (A") (A') (A') (A") (A') (A") (A") (A')
                 (A") (A') (A') (A") (A') (A") (A') (A') (A") (A')
                 (A') (A") (A') (A") (A') (A') (A') (A') (A") (A')
                 (A") (A') (A') (A') (A") (A") (A") (A') (A') (A")
                 (A') (A") (A') (A') (A')
 The electronic state is 1-A'.
 Alpha  occ. eigenvalues --  -18.77570 -18.72083 -14.02868  -9.99631  -9.94811
 Alpha  occ. eigenvalues --   -0.97638  -0.89748  -0.82995  -0.64018  -0.51497
 Alpha  occ. eigenvalues --   -0.48439  -0.46143  -0.44217  -0.39204  -0.36000
 Alpha  occ. eigenvalues --   -0.33321  -0.30992  -0.26247  -0.25166  -0.20119
 Alpha virt. eigenvalues --   -0.01277  -0.00023   0.04957   0.06725   0.10110
 Alpha virt. eigenvalues --    0.13580   0.14199   0.20366   0.25824   0.33999
 Alpha virt. eigenvalues --    0.37607   0.39830   0.43368   0.47653   0.48932
 Alpha virt. eigenvalues --    0.49266   0.54223   0.56331   0.57551   0.60191
 Alpha virt. eigenvalues --    0.62165   0.62879   0.73604   0.76847   0.79245
 Alpha virt. eigenvalues --    0.80378   0.87691   0.93726   0.96900   1.02329
 Alpha virt. eigenvalues --    1.05352   1.11432   1.14902   1.22297   1.24317
 Alpha virt. eigenvalues --    1.29352   1.37279   1.37907   1.49968   1.53793
 Alpha virt. eigenvalues --    1.54089   1.60908   1.63861   1.64262   1.69455
 Alpha virt. eigenvalues --    1.74207   1.76343   1.78760   1.80815   1.88887
 Alpha virt. eigenvalues --    1.99562   2.00317   2.09838   2.12833   2.15479
 Alpha virt. eigenvalues --    2.22076   2.27397   2.33306   2.56440   2.59948
 Alpha virt. eigenvalues --    2.62211   2.67883   2.69762   2.77483   2.78043
 Alpha virt. eigenvalues --    2.82223   2.87942   2.96056   3.06738   3.11883
 Alpha virt. eigenvalues --    3.22946   3.25050   3.32541   3.56126   3.69129
          Condensed to atoms (all electrons):
               1          2          3          4          5          6
     1  N    6.313674   0.262539   0.343874   0.343874  -0.068728  -0.010649
     2  C    0.262539   5.193849  -0.013107  -0.013107   0.180617   0.338199
     3  H    0.343874  -0.013107   0.577644  -0.026603   0.005629  -0.017503
     4  H    0.343874  -0.013107  -0.026603   0.577644   0.005629   0.004560
     5  C   -0.068728   0.180617   0.005629   0.005629   4.735013  -0.010297
     6  H   -0.010649   0.338199  -0.017503   0.004560  -0.010297   0.631034
     7  H   -0.010649   0.338199   0.004560  -0.017503  -0.010297  -0.009646
     8  O    0.002218  -0.102653  -0.000122  -0.000122   0.712126   0.006498
     9  O   -0.026020  -0.141901   0.000758   0.000758   0.406886   0.002679
    10  H    0.098509  -0.026524  -0.002602  -0.002602  -0.033030   0.002941
               7          8          9         10
     1  N   -0.010649   0.002218  -0.026020   0.098509
     2  C    0.338199  -0.102653  -0.141901  -0.026524
     3  H    0.004560  -0.000122   0.000758  -0.002602
     4  H   -0.017503  -0.000122   0.000758  -0.002602
     5  C   -0.010297   0.712126   0.406886  -0.033030
     6  H   -0.009646   0.006498   0.002679   0.002941
     7  H    0.631034   0.006498   0.002679   0.002941
     8  O    0.006498   7.637221  -0.065372   0.003876
     9  O    0.002679  -0.065372   7.677008   0.295406
    10  H    0.002941   0.003876   0.295406   0.499041
 Mulliken charges:
               1
     1  N   -0.248642
     2  C   -0.016111
     3  H    0.127471
     4  H    0.127471
     5  C    0.076453
     6  H    0.062183
     7  H    0.062183
     8  O   -0.200168
     9  O   -0.152883
    10  H    0.162043
 Sum of Mulliken charges =   0.00000
 Mulliken charges with hydrogens summed into heavy atoms:
               1
     1  N    0.006300
     2  C    0.108255
     5  C    0.076453
     8  O   -0.200168
     9  O    0.009161
 Electronic spatial extent (au):  <R**2>=            410.1776
 Charge=              0.0000 electrons
 Dipole moment (field-independent basis, Debye):
    X=              1.0856    Y=             -5.6516    Z=              0.0000  Tot=              5.7549
 Quadrupole moment (field-independent basis, Debye-Ang):
   XX=            -30.8293   YY=            -29.8620   ZZ=            -26.9333
   XY=             -1.3199   XZ=              0.0000   YZ=              0.0000
 Traceless Quadrupole moment (field-independent basis, Debye-Ang):
   XX=             -1.6211   YY=             -0.6538   ZZ=              2.2749
   XY=             -1.3199   XZ=              0.0000   YZ=              0.0000
 Octapole moment (field-independent basis, Debye-Ang**2):
  XXX=             -1.0105  YYY=            -25.6687  ZZZ=              0.0000  XYY=             -2.0123
  XXY=             -2.7994  XXZ=              0.0000  XZZ=              0.3267  YZZ=             -3.1135
  YYZ=              0.0000  XYZ=              0.0000
 Hexadecapole moment (field-independent basis, Debye-Ang**3):
 XXXX=           -138.3475 YYYY=           -286.0219 ZZZZ=            -33.6105 XXXY=              8.0114
 XXXZ=              0.0000 YYYX=             -5.3344 YYYZ=              0.0000 ZZZX=              0.0000
 ZZZY=              0.0000 XXYY=            -79.8841 XXZZ=            -27.3835 YYZZ=            -47.4496
 XXYZ=              0.0000 YYXZ=              0.0000 ZZXY=              0.4634
 N-N= 1.798163823442D+02 E-N=-1.025296703182D+03  KE= 2.815339015965D+02
 Symmetry A'   KE= 2.685617540489D+02
 Symmetry A"   KE= 1.297214754762D+01
 Leave Link  601 at Fri Sep 11 13:09:27 2015, MaxMem=    33554432 cpu:         0.1
 (Enter /usr/local/research/Gaussian09/g09-revD.01/g09/l9999.exe)
 1\1\GINC-HEISENBERG\SP\RPBEPBE TD-FC\def2SVP\C2H5N1O2\LEIN\11-Sep-2015
 \0\\#p td=(nstates=24) pbepbe def2svp geom=allcheck guess=read\\-- Gly
 cine conformers --\\0,1\N,0,0.2414276652,-1.7353130728,0.\C,0,-0.75877
 15071,-0.6586635137,0.\H,0,0.1673754515,-2.3393163132,-0.8252258767\H,
 0,0.1673754515,-2.3393163132,0.8252258767\C,0,-0.0676209192,0.72730955
 55,0.\H,0,-1.426552761,-0.6938722363,-0.8854467308\H,0,-1.426552761,-0
 .6938722363,0.8854467308\O,0,-0.6837087817,1.7716416993,0.\O,0,1.26789
 83071,0.6233760265,0.\H,0,1.4048091106,-0.3777192464,0.\\Version=EM64L
 -G09RevD.01\State=1-A'\HF=-283.9053489\RMSD=2.135e-09\PG=CS [SG(C2H1N1
 O2),X(H4)]\\@


 MAN IS THE MEASURE OF ALL THINGS.
  -- PROTAGORAS (5TH CENTURY B.C.)
 Job cpu time:       0 days  0 hours  2 minutes  2.3 seconds.
 File lengths (MBytes):  RWF=     46 Int=      0 D2E=      0 Chk=      9 Scr=      1
 Normal termination of Gaussian 09 at Fri Sep 11 13:09:27 2015.
