 Entering Gaussian System, Link 0=g09
 Initial command:
 /usr/local/research/Gaussian09/g09-revD.01/g09/l1.exe "/scratch/lein/Gau-2230.inp" -scrdir="/scratch/lein/"
 Entering Link 1 = /usr/local/research/Gaussian09/g09-revD.01/g09/l1.exe PID=      2233.
  
 Copyright (c) 1988,1990,1992,1993,1995,1998,2003,2009,2013,
            Gaussian, Inc.  All Rights Reserved.
  
 This is part of the Gaussian(R) 09 program.  It is based on
 the Gaussian(R) 03 system (copyright 2003, Gaussian, Inc.),
 the Gaussian(R) 98 system (copyright 1998, Gaussian, Inc.),
 the Gaussian(R) 94 system (copyright 1995, Gaussian, Inc.),
 the Gaussian 92(TM) system (copyright 1992, Gaussian, Inc.),
 the Gaussian 90(TM) system (copyright 1990, Gaussian, Inc.),
 the Gaussian 88(TM) system (copyright 1988, Gaussian, Inc.),
 the Gaussian 86(TM) system (copyright 1986, Carnegie Mellon
 University), and the Gaussian 82(TM) system (copyright 1983,
 Carnegie Mellon University). Gaussian is a federally registered
 trademark of Gaussian, Inc.
  
 This software contains proprietary and confidential information,
 including trade secrets, belonging to Gaussian, Inc.
  
 This software is provided under written license and may be
 used, copied, transmitted, or stored only in accord with that
 written license.
  
 The following legend is applicable only to US Government
 contracts under FAR:
  
                    RESTRICTED RIGHTS LEGEND
  
 Use, reproduction and disclosure by the US Government is
 subject to restrictions as set forth in subparagraphs (a)
 and (c) of the Commercial Computer Software - Restricted
 Rights clause in FAR 52.227-19.
  
 Gaussian, Inc.
 340 Quinnipiac St., Bldg. 40, Wallingford CT 06492
  
  
 ---------------------------------------------------------------
 Warning -- This program may not be used in any manner that
 competes with the business of Gaussian, Inc. or will provide
 assistance to any competitor of Gaussian, Inc.  The licensee
 of this program is prohibited from giving any competitor of
 Gaussian, Inc. access to this program.  By using this program,
 the user acknowledges that Gaussian, Inc. is engaged in the
 business of creating and licensing software in the field of
 computational chemistry and represents and warrants to the
 licensee that it is not a competitor of Gaussian, Inc. and that
 it will not use this program in any manner prohibited above.
 ---------------------------------------------------------------
  

 Cite this work as:
 Gaussian 09, Revision D.01,
 M. J. Frisch, G. W. Trucks, H. B. Schlegel, G. E. Scuseria, 
 M. A. Robb, J. R. Cheeseman, G. Scalmani, V. Barone, B. Mennucci, 
 G. A. Petersson, H. Nakatsuji, M. Caricato, X. Li, H. P. Hratchian, 
 A. F. Izmaylov, J. Bloino, G. Zheng, J. L. Sonnenberg, M. Hada, 
 M. Ehara, K. Toyota, R. Fukuda, J. Hasegawa, M. Ishida, T. Nakajima, 
 Y. Honda, O. Kitao, H. Nakai, T. Vreven, J. A. Montgomery, Jr., 
 J. E. Peralta, F. Ogliaro, M. Bearpark, J. J. Heyd, E. Brothers, 
 K. N. Kudin, V. N. Staroverov, T. Keith, R. Kobayashi, J. Normand, 
 K. Raghavachari, A. Rendell, J. C. Burant, S. S. Iyengar, J. Tomasi, 
 M. Cossi, N. Rega, J. M. Millam, M. Klene, J. E. Knox, J. B. Cross, 
 V. Bakken, C. Adamo, J. Jaramillo, R. Gomperts, R. E. Stratmann, 
 O. Yazyev, A. J. Austin, R. Cammi, C. Pomelli, J. W. Ochterski, 
 R. L. Martin, K. Morokuma, V. G. Zakrzewski, G. A. Voth, 
 P. Salvador, J. J. Dannenberg, S. Dapprich, A. D. Daniels, 
 O. Farkas, J. B. Foresman, J. V. Ortiz, J. Cioslowski, 
 and D. J. Fox, Gaussian, Inc., Wallingford CT, 2013.
 
 ******************************************
 Gaussian 09:  EM64L-G09RevD.01 24-Apr-2013
                11-Sep-2015 
 ******************************************
 %chk=3-gtt.chk
 ----------------------------------
 #p opt freq pbepbe def2svp scf=xqc
 ----------------------------------
 1/14=-1,18=20,19=15,26=3,38=1/1,3;
 2/9=110,12=2,17=6,18=5,40=1/2;
 3/5=43,7=101,11=2,16=1,25=1,30=1,71=1,74=1009/1,2,3;
 4//1;
 5/5=2,8=3,13=1,38=5/2,8;
 6/7=2,8=2,9=2,10=2,28=1/1;
 7//1,2,3,16;
 1/14=-1,18=20,19=15,26=3/3(2);
 2/9=110/2;
 99//99;
 2/9=110/2;
 3/5=43,7=101,11=2,16=1,25=1,30=1,71=1,74=1009/1,2,3;
 4/5=5,16=3,69=1/1;
 5/5=2,8=3,13=1,38=5/2,8;
 7//1,2,3,16;
 1/14=-1,18=20,19=15,26=3/3(-5);
 2/9=110/2;
 6/7=2,8=2,9=2,10=2,19=2,28=1/1;
 99/9=1/99;
 Leave Link    1 at Fri Sep 11 13:09:27 2015, MaxMem=           0 cpu:         0.0
 (Enter /usr/local/research/Gaussian09/g09-revD.01/g09/l101.exe)
 ------------------------
 -- Glycine conformers --
 ------------------------
 Symbolic Z-matrix:
 Charge =  0 Multiplicity = 1
 N                     0.0438   -1.92595   0. 
 C                    -0.79717  -0.74596   0. 
 H                     0.86105  -1.67231  -0.5189 
 H                    -0.58115  -2.70014  -0.10748 
 C                     0.05661   0.51399   0. 
 H                    -1.42307  -0.74417  -0.90115 
 H                    -1.42307  -0.74417   0.90115 
 O                     1.31175   0.4235    0. 
 O                    -0.5675    1.8006    0. 
 H                     0.10683   2.48386   0. 
 
 NAtoms=     10 NQM=       10 NQMF=       0 NMMI=      0 NMMIF=      0
                NMic=       0 NMicF=      0.
                    Isotopes and Nuclear Properties:
 (Nuclear quadrupole moments (NQMom) in fm**2, nuclear magnetic moments (NMagM)
  in nuclear magnetons)

  Atom         1           2           3           4           5           6           7           8           9          10
 IAtWgt=          14          12           1           1          12           1           1          16          16           1
 AtmWgt=  14.0030740  12.0000000   1.0078250   1.0078250  12.0000000   1.0078250   1.0078250  15.9949146  15.9949146   1.0078250
 NucSpn=           2           0           1           1           0           1           1           0           0           1
 AtZEff=   0.0000000   0.0000000   0.0000000   0.0000000   0.0000000   0.0000000   0.0000000   0.0000000   0.0000000   0.0000000
 NQMom=    2.0440000   0.0000000   0.0000000   0.0000000   0.0000000   0.0000000   0.0000000   0.0000000   0.0000000   0.0000000
 NMagM=    0.4037610   0.0000000   2.7928460   2.7928460   0.0000000   2.7928460   2.7928460   0.0000000   0.0000000   2.7928460
 AtZNuc=   7.0000000   6.0000000   1.0000000   1.0000000   6.0000000   1.0000000   1.0000000   8.0000000   8.0000000   1.0000000
 Leave Link  101 at Fri Sep 11 13:09:28 2015, MaxMem=    33554432 cpu:         0.2
 (Enter /usr/local/research/Gaussian09/g09-revD.01/g09/l103.exe)

 GradGradGradGradGradGradGradGradGradGradGradGradGradGradGradGradGradGrad
 Berny optimization.
 Initialization pass.
                           ----------------------------
                           !    Initial Parameters    !
                           ! (Angstroms and Degrees)  !
 --------------------------                            --------------------------
 ! Name  Definition              Value          Derivative Info.                !
 --------------------------------------------------------------------------------
 ! R1    R(1,2)                  1.449          estimate D2E/DX2                !
 ! R2    R(1,3)                  1.0007         estimate D2E/DX2                !
 ! R3    R(1,4)                  1.0007         estimate D2E/DX2                !
 ! R4    R(2,5)                  1.522          estimate D2E/DX2                !
 ! R5    R(2,6)                  1.0972         estimate D2E/DX2                !
 ! R6    R(2,7)                  1.0972         estimate D2E/DX2                !
 ! R7    R(5,8)                  1.2584         estimate D2E/DX2                !
 ! R8    R(5,9)                  1.43           estimate D2E/DX2                !
 ! R9    R(9,10)                 0.96           estimate D2E/DX2                !
 ! A1    A(2,1,3)              105.5191         estimate D2E/DX2                !
 ! A2    A(2,1,4)              105.5191         estimate D2E/DX2                !
 ! A3    A(3,1,4)              130.5691         estimate D2E/DX2                !
 ! A4    A(1,2,5)              110.4            estimate D2E/DX2                !
 ! A5    A(1,2,6)              109.4154         estimate D2E/DX2                !
 ! A6    A(1,2,7)              109.4154         estimate D2E/DX2                !
 ! A7    A(5,2,6)              108.5817         estimate D2E/DX2                !
 ! A8    A(5,2,7)              108.5817         estimate D2E/DX2                !
 ! A9    A(6,2,7)              110.435          estimate D2E/DX2                !
 ! A10   A(2,5,8)              119.9994         estimate D2E/DX2                !
 ! A11   A(2,5,9)              119.9999         estimate D2E/DX2                !
 ! A12   A(8,5,9)              120.0008         estimate D2E/DX2                !
 ! A13   A(5,9,10)             109.4997         estimate D2E/DX2                !
 ! D1    D(3,1,2,5)            -32.5567         estimate D2E/DX2                !
 ! D2    D(3,1,2,6)             86.8863         estimate D2E/DX2                !
 ! D3    D(3,1,2,7)           -151.9996         estimate D2E/DX2                !
 ! D4    D(4,1,2,5)           -173.6            estimate D2E/DX2                !
 ! D5    D(4,1,2,6)            -54.157          estimate D2E/DX2                !
 ! D6    D(4,1,2,7)             66.957          estimate D2E/DX2                !
 ! D7    D(1,2,5,8)              0.0            estimate D2E/DX2                !
 ! D8    D(1,2,5,9)            180.0            estimate D2E/DX2                !
 ! D9    D(6,2,5,8)           -119.9463         estimate D2E/DX2                !
 ! D10   D(6,2,5,9)             60.0537         estimate D2E/DX2                !
 ! D11   D(7,2,5,8)            119.9463         estimate D2E/DX2                !
 ! D12   D(7,2,5,9)            -60.0537         estimate D2E/DX2                !
 ! D13   D(2,5,9,10)           180.0            estimate D2E/DX2                !
 ! D14   D(8,5,9,10)             0.0            estimate D2E/DX2                !
 --------------------------------------------------------------------------------
 Trust Radius=3.00D-01 FncErr=1.00D-07 GrdErr=1.00D-06
 Number of steps in this run=     46 maximum allowed number of steps=    100.
 GradGradGradGradGradGradGradGradGradGradGradGradGradGradGradGradGradGrad

 Leave Link  103 at Fri Sep 11 13:09:28 2015, MaxMem=    33554432 cpu:         0.0
 (Enter /usr/local/research/Gaussian09/g09-revD.01/g09/l202.exe)
                          Input orientation:                          
 ---------------------------------------------------------------------
 Center     Atomic      Atomic             Coordinates (Angstroms)
 Number     Number       Type             X           Y           Z
 ---------------------------------------------------------------------
      1          7           0        0.043799   -1.925951    0.000000
      2          6           0       -0.797168   -0.745963    0.000000
      3          1           0        0.861047   -1.672307   -0.518899
      4          1           0       -0.581146   -2.700145   -0.107485
      5          6           0        0.056614    0.513985    0.000000
      6          1           0       -1.423071   -0.744169   -0.901147
      7          1           0       -1.423071   -0.744169    0.901147
      8          8           0        1.311748    0.423499    0.000000
      9          8           0       -0.567501    1.800598    0.000000
     10          1           0        0.106829    2.483861    0.000000
 ---------------------------------------------------------------------
                    Distance matrix (angstroms):
                    1          2          3          4          5
     1  N    0.000000
     2  C    1.448999   0.000000
     3  H    1.000743   1.969022   0.000000
     4  H    1.000743   1.969022   1.818140   0.000000
     5  C    2.439970   1.521976   2.386680   3.278555   0.000000
     6  H    2.088153   1.097189   2.494944   2.272571   2.141141
     7  H    2.088153   1.097189   2.845200   2.356272   2.141141
     8  O    2.669758   2.411465   2.205627   3.654005   1.258392
     9  O    3.776355   2.556896   3.790920   4.502047   1.429997
    10  H    4.410262   3.353948   4.255800   5.230562   1.970516
                    6          7          8          9         10
     6  H    0.000000
     7  H    1.802294   0.000000
     8  O    3.107209   3.107209   0.000000
     9  O    2.831943   2.831943   2.329803   0.000000
    10  H    3.684133   3.684133   2.386822   0.959984   0.000000
 Stoichiometry    C2H5NO2
 Framework group  C1[X(C2H5NO2)]
 Deg. of freedom    24
 Full point group                 C1      NOp   1
 Largest Abelian subgroup         C1      NOp   1
 Largest concise Abelian subgroup C1      NOp   1
                         Standard orientation:                         
 ---------------------------------------------------------------------
 Center     Atomic      Atomic             Coordinates (Angstroms)
 Number     Number       Type             X           Y           Z
 ---------------------------------------------------------------------
      1          7           0       -1.910374    0.131859   -0.047513
      2          6           0       -0.763407   -0.752953   -0.013296
      3          1           0       -1.633799    0.948515    0.460490
      4          1           0       -2.709366   -0.461258    0.058830
      5          6           0        0.527992    0.052453   -0.008527
      6          1           0       -0.799304   -1.361486    0.898966
      7          1           0       -0.771596   -1.395247   -0.902798
      8          8           0        0.485380    1.309890   -0.032744
      9          8           0        1.789752   -0.619730    0.023471
     10          1           0        2.498118    0.028178    0.022224
 ---------------------------------------------------------------------
 Rotational constants (GHZ):     10.6594208      3.7195901      2.8157912
 Leave Link  202 at Fri Sep 11 13:09:28 2015, MaxMem=    33554432 cpu:         0.0
 (Enter /usr/local/research/Gaussian09/g09-revD.01/g09/l301.exe)
 Standard basis: def2SVP (5D, 7F)
 Ernie: Thresh=  0.10000D-02 Tol=  0.10000D-05 Strict=F.
 There are   100 symmetry adapted cartesian basis functions of A   symmetry.
 There are    95 symmetry adapted basis functions of A   symmetry.
    95 basis functions,   160 primitive gaussians,   100 cartesian basis functions
    20 alpha electrons       20 beta electrons
       nuclear repulsion energy       176.4748462005 Hartrees.
 IExCor= 1009 DFT=T Ex=PBE Corr=PBE ExCW=0 ScaHFX=  0.000000
 ScaDFX=  1.000000  1.000000  1.000000  1.000000 ScalE2=  1.000000  1.000000
 IRadAn=      0 IRanWt=     -1 IRanGd=            0 ICorTp=0 IEmpDi=  4
 NAtoms=   10 NActive=   10 NUniq=   10 SFac= 1.00D+00 NAtFMM=   60 NAOKFM=F Big=F
 Integral buffers will be    131072 words long.
 Raffenetti 2 integral format.
 Two-electron integral symmetry is turned on.
 Leave Link  301 at Fri Sep 11 13:09:28 2015, MaxMem=    33554432 cpu:         0.1
 (Enter /usr/local/research/Gaussian09/g09-revD.01/g09/l302.exe)
 NPDir=0 NMtPBC=     1 NCelOv=     1 NCel=       1 NClECP=     1 NCelD=      1
         NCelK=      1 NCelE2=     1 NClLst=     1 CellRange=     0.0.
 One-electron integrals computed using PRISM.
   1 Symmetry operations used in ECPInt.
 ECPInt:  NShTT=    1035 NPrTT=    3735 LenC2=    1033 LenP2D=    3175.
 LDataN:  DoStor=T MaxTD1= 4 Len=   56
 NBasis=    95 RedAO= T EigKep=  2.28D-03  NBF=    95
 NBsUse=    95 1.00D-06 EigRej= -1.00D+00 NBFU=    95
 Precomputing XC quadrature grid using
 IXCGrd= 4 IRadAn=           0 IRanWt=          -1 IRanGd=           0 AccXCQ= 0.00D+00.
 Generated NRdTot=       0 NPtTot=           0 NUsed=           0 NTot=          32
 NSgBfM=   100   100   100   100   100 MxSgAt=    10 MxSgA2=    10.
 Leave Link  302 at Fri Sep 11 13:09:28 2015, MaxMem=    33554432 cpu:         0.5
 (Enter /usr/local/research/Gaussian09/g09-revD.01/g09/l303.exe)
 DipDrv:  MaxL=1.
 Leave Link  303 at Fri Sep 11 13:09:29 2015, MaxMem=    33554432 cpu:         0.0
 (Enter /usr/local/research/Gaussian09/g09-revD.01/g09/l401.exe)
 ExpMin= 1.22D-01 ExpMax= 2.27D+03 ExpMxC= 3.41D+02 IAcc=1 IRadAn=         1 AccDes= 0.00D+00
 Harris functional with IExCor= 1009 and IRadAn=       1 diagonalized for initial guess.
 HarFok:  IExCor= 1009 AccDes= 0.00D+00 IRadAn=         1 IDoV= 1 UseB2=F ITyADJ=14
 ICtDFT=  3500011 ScaDFX=  1.000000  1.000000  1.000000  1.000000
 FoFCou: FMM=F IPFlag=           0 FMFlag=      100000 FMFlg1=           0
         NFxFlg=           0 DoJE=T BraDBF=F KetDBF=T FulRan=T
         wScrn=  0.000000 ICntrl=     500 IOpCl=  0 I1Cent=   200000004 NGrid=           0
         NMat0=    1 NMatS0=      1 NMatT0=    0 NMatD0=    1 NMtDS0=    0 NMtDT0=    0
 Petite list used in FoFCou.
 Harris En= -283.953456132977    
 JPrj=0 DoOrth=F DoCkMO=F.
 Leave Link  401 at Fri Sep 11 13:09:29 2015, MaxMem=    33554432 cpu:         0.9
 (Enter /usr/local/research/Gaussian09/g09-revD.01/g09/l502.exe)
 Closed shell SCF:
 Using DIIS extrapolation, IDIIS=  1040.
 Integral symmetry usage will be decided dynamically.
 Keep J ints in memory in canonical form, NReq=11359554.
 IVT=       37302 IEndB=       37302 NGot=    33554432 MDV=    23118051
 LenX=    23118051 LenY=    23107610
 Requested convergence on RMS density matrix=1.00D-08 within  64 cycles.
 Requested convergence on MAX density matrix=1.00D-06.
 Requested convergence on             energy=1.00D-06.
 No special actions if energy rises.
 FoFCou: FMM=F IPFlag=           0 FMFlag=           0 FMFlg1=           0
         NFxFlg=           0 DoJE=F BraDBF=F KetDBF=F FulRan=T
         wScrn=  0.000000 ICntrl=     600 IOpCl=  0 I1Cent=           0 NGrid=           0
         NMat0=    1 NMatS0=   4560 NMatT0=    0 NMatD0=    1 NMtDS0=    0 NMtDT0=    0
 Symmetry not used in FoFCou.
 Integral accuracy reduced to 1.0D-05 until final iterations.

 Cycle   1  Pass 0  IDiag  1:
 E= -283.724231161988    
 DIIS: error= 3.01D-02 at cycle   1 NSaved=   1.
 NSaved= 1 IEnMin= 1 EnMin= -283.724231161988     IErMin= 1 ErrMin= 3.01D-02
 ErrMax= 3.01D-02  0.00D+00 EMaxC= 1.00D-01 BMatC= 1.77D-01 BMatP= 1.77D-01
 IDIUse=3 WtCom= 6.99D-01 WtEn= 3.01D-01
 Coeff-Com:  0.100D+01
 Coeff-En:   0.100D+01
 Coeff:      0.100D+01
 Gap=     0.004 Goal=   None    Shift=    0.000
 GapD=    0.004 DampG=0.250 DampE=0.500 DampFc=0.2500 IDamp=-1.
 Damping current iteration by 2.50D-01
 RMSDP=1.35D-02 MaxDP=2.54D-01              OVMax= 3.17D-01

 Cycle   2  Pass 0  IDiag  1:
 E= -283.770034317630     Delta-E=       -0.045803155642 Rises=F Damp=T
 DIIS: error= 8.94D-03 at cycle   2 NSaved=   2.
 NSaved= 2 IEnMin= 2 EnMin= -283.770034317630     IErMin= 2 ErrMin= 8.94D-03
 ErrMax= 8.94D-03  0.00D+00 EMaxC= 1.00D-01 BMatC= 1.79D-02 BMatP= 1.77D-01
 IDIUse=3 WtCom= 9.11D-01 WtEn= 8.94D-02
 Coeff-Com: -0.183D+00 0.118D+01
 Coeff-En:   0.172D+00 0.828D+00
 Coeff:     -0.151D+00 0.115D+01
 Gap=     0.060 Goal=   None    Shift=    0.000
 RMSDP=3.56D-03 MaxDP=7.03D-02 DE=-4.58D-02 OVMax= 2.52D-01

 Cycle   3  Pass 0  IDiag  1:
 E= -283.802910692792     Delta-E=       -0.032876375162 Rises=F Damp=F
 DIIS: error= 2.70D-02 at cycle   3 NSaved=   3.
 NSaved= 3 IEnMin= 3 EnMin= -283.802910692792     IErMin= 2 ErrMin= 8.94D-03
 ErrMax= 2.70D-02  0.00D+00 EMaxC= 1.00D-01 BMatC= 8.55D-02 BMatP= 1.79D-02
 IDIUse=2 WtCom= 0.00D+00 WtEn= 1.00D+00
 EnCoef did     5 forward-backward iterations
 Coeff-En:   0.556D-01 0.280D+00 0.664D+00
 Coeff:      0.556D-01 0.280D+00 0.664D+00
 Gap=     0.132 Goal=   None    Shift=    0.000
 RMSDP=7.65D-03 MaxDP=1.90D-01 DE=-3.29D-02 OVMax= 3.80D-01

 Cycle   4  Pass 0  IDiag  1:
 E= -283.537020883725     Delta-E=        0.265889809066 Rises=F Damp=F
 DIIS: error= 5.64D-02 at cycle   4 NSaved=   4.
 NSaved= 4 IEnMin= 3 EnMin= -283.802910692792     IErMin= 2 ErrMin= 8.94D-03
 ErrMax= 5.64D-02  0.00D+00 EMaxC= 1.00D-01 BMatC= 4.13D-01 BMatP= 1.79D-02
 IDIUse=2 WtCom= 0.00D+00 WtEn= 1.00D+00
 EnCoef did     2 forward-backward iterations
 Coeff-En:   0.653D-01 0.000D+00 0.692D+00 0.243D+00
 Coeff:      0.653D-01 0.000D+00 0.692D+00 0.243D+00
 Gap=     0.164 Goal=   None    Shift=    0.000
 RMSDP=4.50D-03 MaxDP=1.11D-01 DE= 2.66D-01 OVMax= 2.09D-01

 Cycle   5  Pass 0  IDiag  1:
 E= -283.853786161837     Delta-E=       -0.316765278111 Rises=F Damp=F
 DIIS: error= 1.50D-02 at cycle   5 NSaved=   5.
 NSaved= 5 IEnMin= 5 EnMin= -283.853786161837     IErMin= 2 ErrMin= 8.94D-03
 ErrMax= 1.50D-02  0.00D+00 EMaxC= 1.00D-01 BMatC= 2.70D-02 BMatP= 1.79D-02
 IDIUse=2 WtCom= 0.00D+00 WtEn= 1.00D+00
 Coeff-En:   0.000D+00 0.000D+00 0.298D+00 0.000D+00 0.702D+00
 Coeff:      0.000D+00 0.000D+00 0.298D+00 0.000D+00 0.702D+00
 Gap=     0.118 Goal=   None    Shift=    0.000
 RMSDP=1.89D-03 MaxDP=4.78D-02 DE=-3.17D-01 OVMax= 8.82D-02

 Cycle   6  Pass 0  IDiag  1:
 E= -283.870371922671     Delta-E=       -0.016585760834 Rises=F Damp=F
 DIIS: error= 7.08D-03 at cycle   6 NSaved=   6.
 NSaved= 6 IEnMin= 6 EnMin= -283.870371922671     IErMin= 6 ErrMin= 7.08D-03
 ErrMax= 7.08D-03  0.00D+00 EMaxC= 1.00D-01 BMatC= 6.78D-03 BMatP= 1.79D-02
 IDIUse=3 WtCom= 9.29D-01 WtEn= 7.08D-02
 Coeff-Com: -0.859D-01 0.146D+00 0.198D+00-0.538D-01 0.571D+00 0.225D+00
 Coeff-En:   0.000D+00 0.000D+00 0.000D+00 0.000D+00 0.250D+00 0.750D+00
 Coeff:     -0.798D-01 0.135D+00 0.184D+00-0.500D-01 0.548D+00 0.262D+00
 Gap=     0.129 Goal=   None    Shift=    0.000
 RMSDP=6.72D-04 MaxDP=1.90D-02 DE=-1.66D-02 OVMax= 2.71D-02

 Cycle   7  Pass 0  IDiag  1:
 E= -283.875673780295     Delta-E=       -0.005301857624 Rises=F Damp=F
 DIIS: error= 6.86D-04 at cycle   7 NSaved=   7.
 NSaved= 7 IEnMin= 7 EnMin= -283.875673780295     IErMin= 7 ErrMin= 6.86D-04
 ErrMax= 6.86D-04  0.00D+00 EMaxC= 1.00D-01 BMatC= 7.78D-05 BMatP= 6.78D-03
 IDIUse=3 WtCom= 9.93D-01 WtEn= 6.86D-03
 Coeff-Com: -0.333D-01 0.542D-01 0.597D-01-0.245D-01 0.228D+00 0.166D+00
 Coeff-Com:  0.550D+00
 Coeff-En:   0.000D+00 0.000D+00 0.000D+00 0.000D+00 0.000D+00 0.000D+00
 Coeff-En:   0.100D+01
 Coeff:     -0.330D-01 0.538D-01 0.593D-01-0.244D-01 0.226D+00 0.165D+00
 Coeff:      0.553D+00
 Gap=     0.128 Goal=   None    Shift=    0.000
 RMSDP=8.50D-05 MaxDP=2.08D-03 DE=-5.30D-03 OVMax= 2.18D-03

 Cycle   8  Pass 0  IDiag  1:
 E= -283.875737335432     Delta-E=       -0.000063555137 Rises=F Damp=F
 DIIS: error= 1.84D-04 at cycle   8 NSaved=   8.
 NSaved= 8 IEnMin= 8 EnMin= -283.875737335432     IErMin= 8 ErrMin= 1.84D-04
 ErrMax= 1.84D-04  0.00D+00 EMaxC= 1.00D-01 BMatC= 4.91D-06 BMatP= 7.78D-05
 IDIUse=3 WtCom= 9.98D-01 WtEn= 1.84D-03
 Coeff-Com:  0.151D-02-0.376D-02-0.308D-02-0.968D-03 0.183D-01 0.565D-01
 Coeff-Com:  0.292D+00 0.640D+00
 Coeff-En:   0.000D+00 0.000D+00 0.000D+00 0.000D+00 0.000D+00 0.000D+00
 Coeff-En:   0.000D+00 0.100D+01
 Coeff:      0.150D-02-0.375D-02-0.308D-02-0.966D-03 0.182D-01 0.564D-01
 Coeff:      0.291D+00 0.641D+00
 Gap=     0.128 Goal=   None    Shift=    0.000
 RMSDP=2.02D-05 MaxDP=5.54D-04 DE=-6.36D-05 OVMax= 4.91D-04

 Cycle   9  Pass 0  IDiag  1:
 E= -283.875741640585     Delta-E=       -0.000004305153 Rises=F Damp=F
 DIIS: error= 2.36D-05 at cycle   9 NSaved=   9.
 NSaved= 9 IEnMin= 9 EnMin= -283.875741640585     IErMin= 9 ErrMin= 2.36D-05
 ErrMax= 2.36D-05  0.00D+00 EMaxC= 1.00D-01 BMatC= 7.71D-08 BMatP= 4.91D-06
 IDIUse=1 WtCom= 1.00D+00 WtEn= 0.00D+00
 Coeff-Com:  0.959D-03-0.201D-02-0.204D-02-0.160D-03 0.519D-02 0.223D-01
 Coeff-Com:  0.120D+00 0.284D+00 0.571D+00
 Coeff:      0.959D-03-0.201D-02-0.204D-02-0.160D-03 0.519D-02 0.223D-01
 Coeff:      0.120D+00 0.284D+00 0.571D+00
 Gap=     0.128 Goal=   None    Shift=    0.000
 RMSDP=4.75D-06 MaxDP=7.61D-05 DE=-4.31D-06 OVMax= 1.21D-04

 Initial convergence to 1.0D-05 achieved.  Increase integral accuracy.
 Cycle  10  Pass 1  IDiag  1:
 E= -283.875750415252     Delta-E=       -0.000008774667 Rises=F Damp=F
 DIIS: error= 9.02D-06 at cycle   1 NSaved=   1.
 NSaved= 1 IEnMin= 1 EnMin= -283.875750415252     IErMin= 1 ErrMin= 9.02D-06
 ErrMax= 9.02D-06  0.00D+00 EMaxC= 1.00D-01 BMatC= 1.66D-08 BMatP= 1.66D-08
 IDIUse=1 WtCom= 1.00D+00 WtEn= 0.00D+00
 Coeff-Com:  0.100D+01
 Coeff:      0.100D+01
 Gap=     0.128 Goal=   None    Shift=    0.000
 RMSDP=4.75D-06 MaxDP=7.61D-05 DE=-8.77D-06 OVMax= 8.92D-05

 Cycle  11  Pass 1  IDiag  1:
 E= -283.875750418875     Delta-E=       -0.000000003623 Rises=F Damp=F
 DIIS: error= 1.37D-05 at cycle   2 NSaved=   2.
 NSaved= 2 IEnMin= 2 EnMin= -283.875750418875     IErMin= 1 ErrMin= 9.02D-06
 ErrMax= 1.37D-05  0.00D+00 EMaxC= 1.00D-01 BMatC= 2.04D-08 BMatP= 1.66D-08
 IDIUse=1 WtCom= 1.00D+00 WtEn= 0.00D+00
 Coeff-Com:  0.531D+00 0.469D+00
 Coeff:      0.531D+00 0.469D+00
 Gap=     0.128 Goal=   None    Shift=    0.000
 RMSDP=1.87D-06 MaxDP=3.15D-05 DE=-3.62D-09 OVMax= 4.41D-05

 Cycle  12  Pass 1  IDiag  1:
 E= -283.875750434843     Delta-E=       -0.000000015968 Rises=F Damp=F
 DIIS: error= 3.36D-06 at cycle   3 NSaved=   3.
 NSaved= 3 IEnMin= 3 EnMin= -283.875750434843     IErMin= 3 ErrMin= 3.36D-06
 ErrMax= 3.36D-06  0.00D+00 EMaxC= 1.00D-01 BMatC= 2.05D-09 BMatP= 1.66D-08
 IDIUse=1 WtCom= 1.00D+00 WtEn= 0.00D+00
 Coeff-Com:  0.861D-01 0.244D+00 0.670D+00
 Coeff:      0.861D-01 0.244D+00 0.670D+00
 Gap=     0.128 Goal=   None    Shift=    0.000
 RMSDP=5.64D-07 MaxDP=1.38D-05 DE=-1.60D-08 OVMax= 1.99D-05

 Cycle  13  Pass 1  IDiag  1:
 E= -283.875750435617     Delta-E=       -0.000000000774 Rises=F Damp=F
 DIIS: error= 2.55D-06 at cycle   4 NSaved=   4.
 NSaved= 4 IEnMin= 4 EnMin= -283.875750435617     IErMin= 4 ErrMin= 2.55D-06
 ErrMax= 2.55D-06  0.00D+00 EMaxC= 1.00D-01 BMatC= 1.00D-09 BMatP= 2.05D-09
 IDIUse=1 WtCom= 1.00D+00 WtEn= 0.00D+00
 Coeff-Com:  0.464D-02 0.123D+00 0.489D+00 0.383D+00
 Coeff:      0.464D-02 0.123D+00 0.489D+00 0.383D+00
 Gap=     0.128 Goal=   None    Shift=    0.000
 RMSDP=3.44D-07 MaxDP=6.53D-06 DE=-7.74D-10 OVMax= 1.55D-05

 Cycle  14  Pass 1  IDiag  1:
 E= -283.875750436414     Delta-E=       -0.000000000797 Rises=F Damp=F
 DIIS: error= 8.63D-07 at cycle   5 NSaved=   5.
 NSaved= 5 IEnMin= 5 EnMin= -283.875750436414     IErMin= 5 ErrMin= 8.63D-07
 ErrMax= 8.63D-07  0.00D+00 EMaxC= 1.00D-01 BMatC= 1.13D-10 BMatP= 1.00D-09
 IDIUse=1 WtCom= 1.00D+00 WtEn= 0.00D+00
 Coeff-Com: -0.138D-02 0.782D-01 0.330D+00 0.294D+00 0.299D+00
 Coeff:     -0.138D-02 0.782D-01 0.330D+00 0.294D+00 0.299D+00
 Gap=     0.128 Goal=   None    Shift=    0.000
 RMSDP=9.70D-08 MaxDP=2.67D-06 DE=-7.97D-10 OVMax= 4.41D-06

 Cycle  15  Pass 1  IDiag  1:
 E= -283.875750436506     Delta-E=       -0.000000000092 Rises=F Damp=F
 DIIS: error= 1.62D-07 at cycle   6 NSaved=   6.
 NSaved= 6 IEnMin= 6 EnMin= -283.875750436506     IErMin= 6 ErrMin= 1.62D-07
 ErrMax= 1.62D-07  0.00D+00 EMaxC= 1.00D-01 BMatC= 4.86D-12 BMatP= 1.13D-10
 IDIUse=1 WtCom= 1.00D+00 WtEn= 0.00D+00
 Coeff-Com: -0.142D-02 0.366D-01 0.159D+00 0.150D+00 0.191D+00 0.465D+00
 Coeff:     -0.142D-02 0.366D-01 0.159D+00 0.150D+00 0.191D+00 0.465D+00
 Gap=     0.128 Goal=   None    Shift=    0.000
 RMSDP=2.20D-08 MaxDP=4.83D-07 DE=-9.20D-11 OVMax= 6.09D-07

 Cycle  16  Pass 1  IDiag  1:
 E= -283.875750436510     Delta-E=       -0.000000000003 Rises=F Damp=F
 DIIS: error= 5.36D-08 at cycle   7 NSaved=   7.
 NSaved= 7 IEnMin= 7 EnMin= -283.875750436510     IErMin= 7 ErrMin= 5.36D-08
 ErrMax= 5.36D-08  0.00D+00 EMaxC= 1.00D-01 BMatC= 5.02D-13 BMatP= 4.86D-12
 IDIUse=1 WtCom= 1.00D+00 WtEn= 0.00D+00
 Coeff-Com: -0.648D-03 0.105D-01 0.475D-01 0.491D-01 0.691D-01 0.279D+00
 Coeff-Com:  0.546D+00
 Coeff:     -0.648D-03 0.105D-01 0.475D-01 0.491D-01 0.691D-01 0.279D+00
 Coeff:      0.546D+00
 Gap=     0.128 Goal=   None    Shift=    0.000
 RMSDP=7.81D-09 MaxDP=1.38D-07 DE=-3.30D-12 OVMax= 1.67D-07

 SCF Done:  E(RPBE-PBE) =  -283.875750437     A.U. after   16 cycles
            NFock= 16  Conv=0.78D-08     -V/T= 2.0088
 KE= 2.813981234699D+02 PE=-1.018489015730D+03 EE= 2.767402956227D+02
 Leave Link  502 at Fri Sep 11 13:09:53 2015, MaxMem=    33554432 cpu:        23.5
 (Enter /usr/local/research/Gaussian09/g09-revD.01/g09/l508.exe)
 QCSCF skips out because SCF is already converged.
 Leave Link  508 at Fri Sep 11 13:09:53 2015, MaxMem=    33554432 cpu:         0.0
 (Enter /usr/local/research/Gaussian09/g09-revD.01/g09/l601.exe)
 Copying SCF densities to generalized density rwf, IOpCl= 0 IROHF=0.

 **********************************************************************

            Population analysis using the SCF density.

 **********************************************************************

 Orbital symmetries:
       Occupied  (A) (A) (A) (A) (A) (A) (A) (A) (A) (A) (A) (A)
                 (A) (A) (A) (A) (A) (A) (A) (A)
       Virtual   (A) (A) (A) (A) (A) (A) (A) (A) (A) (A) (A) (A)
                 (A) (A) (A) (A) (A) (A) (A) (A) (A) (A) (A) (A)
                 (A) (A) (A) (A) (A) (A) (A) (A) (A) (A) (A) (A)
                 (A) (A) (A) (A) (A) (A) (A) (A) (A) (A) (A) (A)
                 (A) (A) (A) (A) (A) (A) (A) (A) (A) (A) (A) (A)
                 (A) (A) (A) (A) (A) (A) (A) (A) (A) (A) (A) (A)
                 (A) (A) (A)
 The electronic state is 1-A.
 Alpha  occ. eigenvalues --  -18.80200 -18.75461 -13.96642 -10.02913  -9.93929
 Alpha  occ. eigenvalues --   -0.97732  -0.90212  -0.79991  -0.63986  -0.53498
 Alpha  occ. eigenvalues --   -0.48871  -0.42661  -0.41572  -0.39156  -0.37136
 Alpha  occ. eigenvalues --   -0.34894  -0.33009  -0.27328  -0.23193  -0.17783
 Alpha virt. eigenvalues --   -0.04954   0.03035   0.03821   0.08536   0.10736
 Alpha virt. eigenvalues --    0.11626   0.14689   0.17116   0.23708   0.28259
 Alpha virt. eigenvalues --    0.39893   0.41585   0.44353   0.48648   0.49803
 Alpha virt. eigenvalues --    0.53916   0.54851   0.57228   0.60018   0.61648
 Alpha virt. eigenvalues --    0.62331   0.68140   0.72748   0.76125   0.79788
 Alpha virt. eigenvalues --    0.84171   0.88351   0.91222   0.94275   0.99904
 Alpha virt. eigenvalues --    1.07782   1.09973   1.15356   1.16303   1.21957
 Alpha virt. eigenvalues --    1.32966   1.35498   1.44743   1.48408   1.52746
 Alpha virt. eigenvalues --    1.55538   1.56819   1.61974   1.66922   1.70204
 Alpha virt. eigenvalues --    1.73111   1.77296   1.79846   1.83006   1.84612
 Alpha virt. eigenvalues --    1.97320   2.07812   2.09319   2.16327   2.20514
 Alpha virt. eigenvalues --    2.22826   2.30121   2.36047   2.53227   2.57541
 Alpha virt. eigenvalues --    2.60914   2.61619   2.73981   2.77044   2.80506
 Alpha virt. eigenvalues --    2.81677   2.87421   2.95686   3.01605   3.05421
 Alpha virt. eigenvalues --    3.15229   3.32891   3.37909   3.45082   3.63487
          Condensed to atoms (all electrons):
               1          2          3          4          5          6
     1  N    6.220171   0.397350   0.365432   0.350050  -0.038880  -0.033609
     2  C    0.397350   4.925286  -0.055556  -0.018137   0.223195   0.329456
     3  H    0.365432  -0.055556   0.566538  -0.019698  -0.010410  -0.001907
     4  H    0.350050  -0.018137  -0.019698   0.584319   0.008144  -0.008606
     5  C   -0.038880   0.223195  -0.010410   0.008144   4.724836  -0.003982
     6  H   -0.033609   0.329456  -0.001907  -0.008606  -0.003982   0.708819
     7  H   -0.035671   0.323329   0.011308  -0.002068   0.015073  -0.031614
     8  O   -0.003431  -0.119529   0.031104   0.000861   0.648527   0.001659
     9  O    0.001021  -0.095378   0.001052  -0.000101   0.343262   0.005644
    10  H   -0.000167   0.015119  -0.000204   0.000009  -0.004738  -0.000739
               7          8          9         10
     1  N   -0.035671  -0.003431   0.001021  -0.000167
     2  C    0.323329  -0.119529  -0.095378   0.015119
     3  H    0.011308   0.031104   0.001052  -0.000204
     4  H   -0.002068   0.000861  -0.000101   0.000009
     5  C    0.015073   0.648527   0.343262  -0.004738
     6  H   -0.031614   0.001659   0.005644  -0.000739
     7  H    0.663946   0.001737   0.004420  -0.000653
     8  O    0.001737   7.731459  -0.071432   0.009644
     9  O    0.004420  -0.071432   7.712613   0.296194
    10  H   -0.000653   0.009644   0.296194   0.507849
 Mulliken charges:
               1
     1  N   -0.222267
     2  C    0.074866
     3  H    0.112341
     4  H    0.105227
     5  C    0.094972
     6  H    0.034879
     7  H    0.050193
     8  O   -0.230601
     9  O   -0.197295
    10  H    0.177686
 Sum of Mulliken charges =   0.00000
 Mulliken charges with hydrogens summed into heavy atoms:
               1
     1  N   -0.004699
     2  C    0.159937
     5  C    0.094972
     8  O   -0.230601
     9  O   -0.019609
 Electronic spatial extent (au):  <R**2>=            430.3857
 Charge=              0.0000 electrons
 Dipole moment (field-independent basis, Debye):
    X=              0.0731    Y=             -1.6873    Z=              0.9248  Tot=              1.9255
 Quadrupole moment (field-independent basis, Debye-Ang):
   XX=            -23.1416   YY=            -32.3528   ZZ=            -29.4599
   XY=              3.2341   XZ=             -1.9172   YZ=              1.1642
 Traceless Quadrupole moment (field-independent basis, Debye-Ang):
   XX=              5.1765   YY=             -4.0347   ZZ=             -1.1418
   XY=              3.2341   XZ=             -1.9172   YZ=              1.1642
 Octapole moment (field-independent basis, Debye-Ang**2):
  XXX=             14.2939  YYY=             -0.9749  ZZZ=              0.5238  XYY=             -4.5675
  XXY=              0.9882  XXZ=              3.9337  XZZ=              2.9054  YZZ=              0.2412
  YYZ=              0.5273  XYZ=             -1.5689
 Hexadecapole moment (field-independent basis, Debye-Ang**3):
 XXXX=           -255.9100 YYYY=           -138.5602 ZZZZ=            -33.2171 XXXY=             20.9066
 XXXZ=             -7.6927 YYYX=             -2.9945 YYYZ=              1.6166 ZZZX=             -1.4126
 ZZZY=              0.8333 XXYY=            -79.4450 XXZZ=            -65.9793 YYZZ=            -26.2774
 XXYZ=              3.0010 YYXZ=             -1.2152 ZZXY=              0.7538
 N-N= 1.764748462005D+02 E-N=-1.018489009208D+03  KE= 2.813981234699D+02
 No NMR shielding tensors so no spin-rotation constants.
 Leave Link  601 at Fri Sep 11 13:09:53 2015, MaxMem=    33554432 cpu:         0.2
 (Enter /usr/local/research/Gaussian09/g09-revD.01/g09/l701.exe)
 Compute integral first derivatives.
 ... and contract with generalized density number  0.
   1 Symmetry operations used in ECPInt.
 ECPInt:  NShTT=    1035 NPrTT=    3735 LenC2=    1033 LenP2D=    3175.
 LDataN:  DoStor=T MaxTD1= 5 Len=  102
 Leave Link  701 at Fri Sep 11 13:09:53 2015, MaxMem=    33554432 cpu:         0.3
 (Enter /usr/local/research/Gaussian09/g09-revD.01/g09/l702.exe)
 L702 exits ... SP integral derivatives will be done elsewhere.
 Leave Link  702 at Fri Sep 11 13:09:54 2015, MaxMem=    33554432 cpu:         0.1
 (Enter /usr/local/research/Gaussian09/g09-revD.01/g09/l703.exe)
 Compute integral first derivatives, UseDBF=F ICtDFT=           0.
 Integral derivatives from FoFJK, PRISM(SPDF).
 Calling FoFJK, ICntrl=      2527 FMM=F ISym2X=0 I1Cent= 0 IOpClX= 0 NMat=1 NMatS=1 NMatT=0.
 FoFJK:  IHMeth= 1 ICntrl=    2527 DoSepK=F KAlg= 0 I1Cent=   0 FoldK=F
 IRaf=         0 NMat=   1 IRICut=       1 DoRegI=T DoRafI=F ISym2E= 0.
 FoFCou: FMM=F IPFlag=           0 FMFlag=      100000 FMFlg1=         800
         NFxFlg=           0 DoJE=F BraDBF=F KetDBF=F FulRan=T
         wScrn=  0.000000 ICntrl=    2527 IOpCl=  0 I1Cent=           0 NGrid=           0
         NMat0=    1 NMatS0=      1 NMatT0=    0 NMatD0=    1 NMtDS0=    0 NMtDT0=    0
 Symmetry not used in FoFCou.
 Leave Link  703 at Fri Sep 11 13:10:01 2015, MaxMem=    33554432 cpu:         7.3
 (Enter /usr/local/research/Gaussian09/g09-revD.01/g09/l716.exe)
 Dipole        = 2.87710715D-02-6.63840044D-01 3.63858859D-01
 ***** Axes restored to original set *****
 -------------------------------------------------------------------
 Center     Atomic                   Forces (Hartrees/Bohr)
 Number     Number              X              Y              Z
 -------------------------------------------------------------------
      1        7          -0.014913551    0.035158585    0.035222278
      2        6           0.010716242    0.005301201   -0.000430947
      3        1           0.017498162   -0.018188668   -0.017604504
      4        1           0.007992377   -0.022861805   -0.015773371
      5        6           0.058840546    0.035825491    0.003294638
      6        1          -0.016018716    0.011502489   -0.006722208
      7        1          -0.011738009    0.005323049    0.005148885
      8        8          -0.057326321    0.006878332   -0.003302826
      9        8          -0.015353461   -0.064544687    0.000112873
     10        1           0.020302730    0.005606011    0.000055183
 -------------------------------------------------------------------
 Cartesian Forces:  Max     0.064544687 RMS     0.024629058
 Leave Link  716 at Fri Sep 11 13:10:01 2015, MaxMem=    33554432 cpu:         0.1
 (Enter /usr/local/research/Gaussian09/g09-revD.01/g09/l103.exe)

 GradGradGradGradGradGradGradGradGradGradGradGradGradGradGradGradGradGrad
 Berny optimization.
 FormGI is forming the generalized inverse of G from B-inverse, IUseBI=4.
 Internal  Forces:  Max     0.057672942 RMS     0.017934366
 Search for a local minimum.
 Step number   1 out of a maximum of   46
 All quantities printed in internal units (Hartrees-Bohrs-Radians)
 RMS Force = .17934D-01 SwitMx=.10000D-02 MixMth= 1
 Mixed Optimization -- RFO/linear search
 Second derivative matrix not updated -- first step.
 ITU=  0
     Eigenvalues ---    0.00475   0.00680   0.01044   0.01295   0.03819
     Eigenvalues ---    0.05394   0.06695   0.09577   0.13021   0.16000
     Eigenvalues ---    0.16000   0.16000   0.22088   0.25000   0.25000
     Eigenvalues ---    0.30177   0.33995   0.33995   0.38376   0.40990
     Eigenvalues ---    0.47558   0.47558   0.55477   0.80212
 RFO step:  Lambda=-3.30110688D-02 EMin= 4.75244460D-03
 Linear search not attempted -- first point.
 Maximum step size (   0.300) exceeded in Quadratic search.
    -- Step size scaled by   0.887
 Iteration  1 RMS(Cart)=  0.07721443 RMS(Int)=  0.00330962
 Iteration  2 RMS(Cart)=  0.00313336 RMS(Int)=  0.00095147
 Iteration  3 RMS(Cart)=  0.00000923 RMS(Int)=  0.00095144
 Iteration  4 RMS(Cart)=  0.00000003 RMS(Int)=  0.00095144
 ITry= 1 IFail=0 DXMaxC= 2.27D-01 DCOld= 1.00D+10 DXMaxT= 3.00D-01 DXLimC= 3.00D+00 Rises=F
 Variable       Old X    -DE/DX   Delta X   Delta X   Delta X     New X
                                 (Linear)    (Quad)   (Total)
    R1        2.73821   0.01094   0.00000   0.02329   0.02329   2.76150
    R2        1.89113   0.01881   0.00000   0.03282   0.03282   1.92395
    R3        1.89113   0.01439   0.00000   0.02511   0.02511   1.91624
    R4        2.87612  -0.00982   0.00000  -0.02602  -0.02602   2.85010
    R5        2.07339   0.01468   0.00000   0.03492   0.03492   2.10831
    R6        2.07339   0.01093   0.00000   0.02602   0.02602   2.09940
    R7        2.37802  -0.05767   0.00000  -0.06129  -0.06129   2.31673
    R8        2.70230  -0.05519   0.00000  -0.11058  -0.11058   2.59173
    R9        1.81411   0.01825   0.00000   0.02755   0.02755   1.84166
    A1        1.84166   0.02219   0.00000   0.09678   0.09445   1.93611
    A2        1.84166   0.02116   0.00000   0.09202   0.08969   1.93135
    A3        2.27886  -0.02807   0.00000  -0.13776  -0.14112   2.13774
    A4        1.92684  -0.00586   0.00000  -0.01361  -0.01334   1.91350
    A5        1.90966   0.01379   0.00000   0.08798   0.08775   1.99741
    A6        1.90966   0.00379   0.00000   0.02231   0.02187   1.93153
    A7        1.89511  -0.00557   0.00000  -0.03497  -0.03532   1.85979
    A8        1.89511  -0.00010   0.00000  -0.01607  -0.01628   1.87882
    A9        1.92745  -0.00635   0.00000  -0.04740  -0.04949   1.87796
   A10        2.09438   0.01715   0.00000   0.05377   0.05358   2.14797
   A11        2.09439  -0.02778   0.00000  -0.08712  -0.08731   2.00709
   A12        2.09441   0.01063   0.00000   0.03335   0.03316   2.12757
   A13        1.91113  -0.01907   0.00000  -0.08767  -0.08767   1.82346
    D1       -0.56822  -0.00046   0.00000  -0.00863  -0.00799  -0.57622
    D2        1.51645  -0.00228   0.00000  -0.00498  -0.00457   1.51188
    D3       -2.65289   0.00089   0.00000   0.00556   0.00679  -2.64611
    D4       -3.02989   0.00203   0.00000   0.02242   0.02154  -3.00835
    D5       -0.94522   0.00021   0.00000   0.02607   0.02496  -0.92025
    D6        1.16862   0.00338   0.00000   0.03661   0.03632   1.20494
    D7        0.00000   0.00494   0.00000   0.06868   0.06860   0.06860
    D8        3.14159   0.00336   0.00000   0.03339   0.03320  -3.10839
    D9       -2.09346  -0.00497   0.00000  -0.00914  -0.00847  -2.10192
   D10        1.04814  -0.00655   0.00000  -0.04443  -0.04386   1.00427
   D11        2.09346   0.00599   0.00000   0.07780   0.07737   2.17083
   D12       -1.04814   0.00441   0.00000   0.04251   0.04197  -1.00616
   D13        3.14159   0.00074   0.00000   0.01673   0.01655  -3.12504
   D14        0.00000  -0.00084   0.00000  -0.01856  -0.01839  -0.01839
         Item               Value     Threshold  Converged?
 Maximum Force            0.057673     0.000450     NO 
 RMS     Force            0.017934     0.000300     NO 
 Maximum Displacement     0.226545     0.001800     NO 
 RMS     Displacement     0.078404     0.001200     NO 
 Predicted change in Energy=-1.806128D-02
 Lowest energy point so far.  Saving SCF results.
 GradGradGradGradGradGradGradGradGradGradGradGradGradGradGradGradGradGrad

 Leave Link  103 at Fri Sep 11 13:10:01 2015, MaxMem=    33554432 cpu:         0.0
 (Enter /usr/local/research/Gaussian09/g09-revD.01/g09/l202.exe)
                          Input orientation:                          
 ---------------------------------------------------------------------
 Center     Atomic      Atomic             Coordinates (Angstroms)
 Number     Number       Type             X           Y           Z
 ---------------------------------------------------------------------
      1          7           0        0.038027   -1.907567    0.014202
      2          6           0       -0.798726   -0.709730   -0.008062
      3          1           0        0.909205   -1.752076   -0.489207
      4          1           0       -0.525658   -2.740201   -0.117076
      5          6           0        0.075370    0.519325    0.000380
      6          1           0       -1.458821   -0.624286   -0.903434
      7          1           0       -1.447512   -0.667826    0.892795
      8          8           0        1.299397    0.470023   -0.047658
      9          8           0       -0.601643    1.711859    0.022302
     10          1           0        0.098440    2.389720    0.009374
 ---------------------------------------------------------------------
                    Distance matrix (angstroms):
                    1          2          3          4          5
     1  N    0.000000
     2  C    1.461323   0.000000
     3  H    1.018110   2.057915   0.000000
     4  H    1.014029   2.051649   1.781489   0.000000
     5  C    2.427219   1.508208   2.468651   3.316556   0.000000
     6  H    2.174724   1.115669   2.655380   2.442591   2.116240
     7  H    2.125021   1.110956   2.939327   2.482820   2.127182
     8  O    2.692176   2.407385   2.298899   3.693397   1.225961
     9  O    3.675526   2.429786   3.813548   4.454889   1.371482
    10  H    4.297714   3.226732   4.249752   5.169292   1.870559
                    6          7          8          9         10
     6  H    0.000000
     7  H    1.796793   0.000000
     8  O    3.088306   3.118439   0.000000
     9  O    2.655055   2.671358   2.271784   0.000000
    10  H    3.513191   3.538218   2.265124   0.974565   0.000000
 Stoichiometry    C2H5NO2
 Framework group  C1[X(C2H5NO2)]
 Deg. of freedom    24
 Full point group                 C1      NOp   1
 RotChk:  IX=0 Diff= 3.18D-02
 Largest Abelian subgroup         C1      NOp   1
 Largest concise Abelian subgroup C1      NOp   1
                         Standard orientation:                         
 ---------------------------------------------------------------------
 Center     Atomic      Atomic             Coordinates (Angstroms)
 Number     Number       Type             X           Y           Z
 ---------------------------------------------------------------------
      1          7           0       -1.892471    0.127293   -0.067811
      2          6           0       -0.726391   -0.750129    0.008681
      3          1           0       -1.713195    1.012300    0.402476
      4          1           0       -2.747018   -0.400393    0.072011
      5          6           0        0.533664    0.078382   -0.014254
      6          1           0       -0.678956   -1.375515    0.931374
      7          1           0       -0.694156   -1.436461   -0.864321
      8          8           0        0.528228    1.304328   -0.016668
      9          8           0        1.700949   -0.641163    0.011537
     10          1           0        2.403572    0.034177    0.007627
 ---------------------------------------------------------------------
 Rotational constants (GHZ):     10.5741947      3.8961172      2.9079391
 Leave Link  202 at Fri Sep 11 13:10:01 2015, MaxMem=    33554432 cpu:         0.0
 (Enter /usr/local/research/Gaussian09/g09-revD.01/g09/l301.exe)
 Standard basis: def2SVP (5D, 7F)
 Ernie: Thresh=  0.10000D-02 Tol=  0.10000D-05 Strict=F.
 There are   100 symmetry adapted cartesian basis functions of A   symmetry.
 There are    95 symmetry adapted basis functions of A   symmetry.
    95 basis functions,   160 primitive gaussians,   100 cartesian basis functions
    20 alpha electrons       20 beta electrons
       nuclear repulsion energy       178.6269896967 Hartrees.
 IExCor= 1009 DFT=T Ex=PBE Corr=PBE ExCW=0 ScaHFX=  0.000000
 ScaDFX=  1.000000  1.000000  1.000000  1.000000 ScalE2=  1.000000  1.000000
 IRadAn=      0 IRanWt=     -1 IRanGd=            0 ICorTp=0 IEmpDi=  4
 NAtoms=   10 NActive=   10 NUniq=   10 SFac= 1.00D+00 NAtFMM=   60 NAOKFM=F Big=F
 Integral buffers will be    131072 words long.
 Raffenetti 2 integral format.
 Two-electron integral symmetry is turned on.
 Leave Link  301 at Fri Sep 11 13:10:01 2015, MaxMem=    33554432 cpu:         0.1
 (Enter /usr/local/research/Gaussian09/g09-revD.01/g09/l302.exe)
 NPDir=0 NMtPBC=     1 NCelOv=     1 NCel=       1 NClECP=     1 NCelD=      1
         NCelK=      1 NCelE2=     1 NClLst=     1 CellRange=     0.0.
 One-electron integrals computed using PRISM.
   1 Symmetry operations used in ECPInt.
 ECPInt:  NShTT=    1035 NPrTT=    3735 LenC2=    1033 LenP2D=    3184.
 LDataN:  DoStor=T MaxTD1= 4 Len=   56
 NBasis=    95 RedAO= T EigKep=  2.35D-03  NBF=    95
 NBsUse=    95 1.00D-06 EigRej= -1.00D+00 NBFU=    95
 Precomputing XC quadrature grid using
 IXCGrd= 4 IRadAn=           0 IRanWt=          -1 IRanGd=           0 AccXCQ= 0.00D+00.
 Generated NRdTot=       0 NPtTot=           0 NUsed=           0 NTot=          32
 NSgBfM=   100   100   100   100   100 MxSgAt=    10 MxSgA2=    10.
 Leave Link  302 at Fri Sep 11 13:10:02 2015, MaxMem=    33554432 cpu:         0.5
 (Enter /usr/local/research/Gaussian09/g09-revD.01/g09/l303.exe)
 DipDrv:  MaxL=1.
 Leave Link  303 at Fri Sep 11 13:10:02 2015, MaxMem=    33554432 cpu:         0.1
 (Enter /usr/local/research/Gaussian09/g09-revD.01/g09/l401.exe)
 Initial guess from the checkpoint file:  "3-gtt.chk"
 B after Tr=     0.000000    0.000000    0.000000
         Rot=    0.999990    0.001955    0.000335    0.004108 Ang=   0.52 deg.
 Guess basis will be translated and rotated to current coordinates.
 JPrj=2 DoOrth=T DoCkMO=T.
 Generating alternative initial guess.
 ExpMin= 1.22D-01 ExpMax= 2.27D+03 ExpMxC= 3.41D+02 IAcc=1 IRadAn=         1 AccDes= 0.00D+00
 Harris functional with IExCor= 1009 and IRadAn=       1 diagonalized for initial guess.
 HarFok:  IExCor= 1009 AccDes= 0.00D+00 IRadAn=         1 IDoV= 1 UseB2=F ITyADJ=14
 ICtDFT=  3500011 ScaDFX=  1.000000  1.000000  1.000000  1.000000
 FoFCou: FMM=F IPFlag=           0 FMFlag=      100000 FMFlg1=           0
         NFxFlg=           0 DoJE=T BraDBF=F KetDBF=T FulRan=T
         wScrn=  0.000000 ICntrl=     500 IOpCl=  0 I1Cent=   200000004 NGrid=           0
         NMat0=    1 NMatS0=      1 NMatT0=    0 NMatD0=    1 NMtDS0=    0 NMtDT0=    0
 Petite list used in FoFCou.
 Harris En= -283.967870935671    
 Leave Link  401 at Fri Sep 11 13:10:03 2015, MaxMem=    33554432 cpu:         1.0
 (Enter /usr/local/research/Gaussian09/g09-revD.01/g09/l502.exe)
 Closed shell SCF:
 Using DIIS extrapolation, IDIIS=  1040.
 Integral symmetry usage will be decided dynamically.
 Keep J ints in memory in canonical form, NReq=11359554.
 IVT=       37302 IEndB=       37302 NGot=    33554432 MDV=    23118051
 LenX=    23118051 LenY=    23107610
 Requested convergence on RMS density matrix=1.00D-08 within  64 cycles.
 Requested convergence on MAX density matrix=1.00D-06.
 Requested convergence on             energy=1.00D-06.
 No special actions if energy rises.
 FoFCou: FMM=F IPFlag=           0 FMFlag=           0 FMFlg1=           0
         NFxFlg=           0 DoJE=F BraDBF=F KetDBF=F FulRan=T
         wScrn=  0.000000 ICntrl=     600 IOpCl=  0 I1Cent=           0 NGrid=           0
         NMat0=    1 NMatS0=   4560 NMatT0=    0 NMatD0=    1 NMtDS0=    0 NMtDT0=    0
 Symmetry not used in FoFCou.
 Integral accuracy reduced to 1.0D-05 until final iterations.

 Cycle   1  Pass 0  IDiag  1:
 E= -283.888221716724    
 DIIS: error= 3.61D-03 at cycle   1 NSaved=   1.
 NSaved= 1 IEnMin= 1 EnMin= -283.888221716724     IErMin= 1 ErrMin= 3.61D-03
 ErrMax= 3.61D-03  0.00D+00 EMaxC= 1.00D-01 BMatC= 5.42D-03 BMatP= 5.42D-03
 IDIUse=3 WtCom= 9.64D-01 WtEn= 3.61D-02
 Coeff-Com:  0.100D+01
 Coeff-En:   0.100D+01
 Coeff:      0.100D+01
 Gap=     0.504 Goal=   None    Shift=    0.000
 GapD=    0.504 DampG=2.000 DampE=1.000 DampFc=2.0000 IDamp=-1.
 RMSDP=1.52D-03 MaxDP=1.61D-02              OVMax= 2.21D-02

 Cycle   2  Pass 0  IDiag  1:
 E= -283.894171934846     Delta-E=       -0.005950218122 Rises=F Damp=F
 DIIS: error= 2.07D-03 at cycle   2 NSaved=   2.
 NSaved= 2 IEnMin= 2 EnMin= -283.894171934846     IErMin= 2 ErrMin= 2.07D-03
 ErrMax= 2.07D-03  0.00D+00 EMaxC= 1.00D-01 BMatC= 7.16D-04 BMatP= 5.42D-03
 IDIUse=3 WtCom= 9.79D-01 WtEn= 2.07D-02
 Coeff-Com:  0.170D+00 0.830D+00
 Coeff-En:   0.000D+00 0.100D+01
 Coeff:      0.166D+00 0.834D+00
 Gap=     0.151 Goal=   None    Shift=    0.000
 RMSDP=7.03D-04 MaxDP=1.49D-02 DE=-5.95D-03 OVMax= 2.79D-02

 Cycle   3  Pass 0  IDiag  1:
 E= -283.893070955721     Delta-E=        0.001100979125 Rises=F Damp=F
 DIIS: error= 3.97D-03 at cycle   3 NSaved=   3.
 NSaved= 3 IEnMin= 2 EnMin= -283.894171934846     IErMin= 2 ErrMin= 2.07D-03
 ErrMax= 3.97D-03  0.00D+00 EMaxC= 1.00D-01 BMatC= 2.08D-03 BMatP= 7.16D-04
 IDIUse=3 WtCom= 1.37D-01 WtEn= 8.63D-01
 Coeff-Com:  0.412D-01 0.620D+00 0.338D+00
 Coeff-En:   0.000D+00 0.688D+00 0.312D+00
 Coeff:      0.564D-02 0.679D+00 0.316D+00
 Gap=     0.146 Goal=   None    Shift=    0.000
 RMSDP=4.38D-04 MaxDP=1.08D-02 DE= 1.10D-03 OVMax= 2.03D-02

 Cycle   4  Pass 0  IDiag  1:
 E= -283.894689052997     Delta-E=       -0.001618097276 Rises=F Damp=F
 DIIS: error= 1.08D-03 at cycle   4 NSaved=   4.
 NSaved= 4 IEnMin= 4 EnMin= -283.894689052997     IErMin= 4 ErrMin= 1.08D-03
 ErrMax= 1.08D-03  0.00D+00 EMaxC= 1.00D-01 BMatC= 1.38D-04 BMatP= 7.16D-04
 IDIUse=3 WtCom= 9.89D-01 WtEn= 1.08D-02
 Coeff-Com:  0.333D-02 0.374D+00 0.203D+00 0.420D+00
 Coeff-En:   0.000D+00 0.532D-01 0.000D+00 0.947D+00
 Coeff:      0.329D-02 0.370D+00 0.201D+00 0.426D+00
 Gap=     0.143 Goal=   None    Shift=    0.000
 RMSDP=1.23D-04 MaxDP=3.96D-03 DE=-1.62D-03 OVMax= 2.97D-03

 Cycle   5  Pass 0  IDiag  1:
 E= -283.894809228339     Delta-E=       -0.000120175342 Rises=F Damp=F
 DIIS: error= 1.71D-04 at cycle   5 NSaved=   5.
 NSaved= 5 IEnMin= 5 EnMin= -283.894809228339     IErMin= 5 ErrMin= 1.71D-04
 ErrMax= 1.71D-04  0.00D+00 EMaxC= 1.00D-01 BMatC= 5.32D-06 BMatP= 1.38D-04
 IDIUse=3 WtCom= 9.98D-01 WtEn= 1.71D-03
 Coeff-Com:  0.894D-03 0.177D+00 0.924D-01 0.247D+00 0.483D+00
 Coeff-En:   0.000D+00 0.000D+00 0.000D+00 0.000D+00 0.100D+01
 Coeff:      0.893D-03 0.176D+00 0.922D-01 0.246D+00 0.484D+00
 Gap=     0.143 Goal=   None    Shift=    0.000
 RMSDP=2.09D-05 MaxDP=5.21D-04 DE=-1.20D-04 OVMax= 5.82D-04

 Cycle   6  Pass 0  IDiag  1:
 E= -283.894813219049     Delta-E=       -0.000003990710 Rises=F Damp=F
 DIIS: error= 6.67D-05 at cycle   6 NSaved=   6.
 NSaved= 6 IEnMin= 6 EnMin= -283.894813219049     IErMin= 6 ErrMin= 6.67D-05
 ErrMax= 6.67D-05  0.00D+00 EMaxC= 1.00D-01 BMatC= 5.80D-07 BMatP= 5.32D-06
 IDIUse=1 WtCom= 1.00D+00 WtEn= 0.00D+00
 Coeff-Com:  0.369D-03 0.648D-01 0.323D-01 0.108D+00 0.303D+00 0.492D+00
 Coeff:      0.369D-03 0.648D-01 0.323D-01 0.108D+00 0.303D+00 0.492D+00
 Gap=     0.143 Goal=   None    Shift=    0.000
 RMSDP=8.66D-06 MaxDP=1.76D-04 DE=-3.99D-06 OVMax= 2.15D-04

 Initial convergence to 1.0D-05 achieved.  Increase integral accuracy.
 Cycle   7  Pass 1  IDiag  1:
 E= -283.894804764268     Delta-E=        0.000008454781 Rises=F Damp=F
 DIIS: error= 9.74D-06 at cycle   1 NSaved=   1.
 NSaved= 1 IEnMin= 1 EnMin= -283.894804764268     IErMin= 1 ErrMin= 9.74D-06
 ErrMax= 9.74D-06  0.00D+00 EMaxC= 1.00D-01 BMatC= 3.19D-08 BMatP= 3.19D-08
 IDIUse=1 WtCom= 1.00D+00 WtEn= 0.00D+00
 Coeff-Com:  0.100D+01
 Coeff:      0.100D+01
 Gap=     0.143 Goal=   None    Shift=    0.000
 RMSDP=8.66D-06 MaxDP=1.76D-04 DE= 8.45D-06 OVMax= 1.28D-04

 Cycle   8  Pass 1  IDiag  1:
 E= -283.894804727703     Delta-E=        0.000000036565 Rises=F Damp=F
 DIIS: error= 1.84D-05 at cycle   2 NSaved=   2.
 NSaved= 2 IEnMin= 1 EnMin= -283.894804764268     IErMin= 1 ErrMin= 9.74D-06
 ErrMax= 1.84D-05  0.00D+00 EMaxC= 1.00D-01 BMatC= 8.32D-08 BMatP= 3.19D-08
 IDIUse=1 WtCom= 1.00D+00 WtEn= 0.00D+00
 Coeff-Com:  0.627D+00 0.373D+00
 Coeff:      0.627D+00 0.373D+00
 Gap=     0.143 Goal=   None    Shift=    0.000
 RMSDP=3.04D-06 MaxDP=4.59D-05 DE= 3.66D-08 OVMax= 8.85D-05

 Cycle   9  Pass 1  IDiag  1:
 E= -283.894804795483     Delta-E=       -0.000000067780 Rises=F Damp=F
 DIIS: error= 5.06D-06 at cycle   3 NSaved=   3.
 NSaved= 3 IEnMin= 3 EnMin= -283.894804795483     IErMin= 3 ErrMin= 5.06D-06
 ErrMax= 5.06D-06  0.00D+00 EMaxC= 1.00D-01 BMatC= 3.61D-09 BMatP= 3.19D-08
 IDIUse=1 WtCom= 1.00D+00 WtEn= 0.00D+00
 Coeff-Com:  0.234D+00 0.203D+00 0.562D+00
 Coeff:      0.234D+00 0.203D+00 0.562D+00
 Gap=     0.143 Goal=   None    Shift=    0.000
 RMSDP=7.59D-07 MaxDP=2.11D-05 DE=-6.78D-08 OVMax= 2.90D-05

 Cycle  10  Pass 1  IDiag  1:
 E= -283.894804796846     Delta-E=       -0.000000001362 Rises=F Damp=F
 DIIS: error= 3.82D-06 at cycle   4 NSaved=   4.
 NSaved= 4 IEnMin= 4 EnMin= -283.894804796846     IErMin= 4 ErrMin= 3.82D-06
 ErrMax= 3.82D-06  0.00D+00 EMaxC= 1.00D-01 BMatC= 1.82D-09 BMatP= 3.61D-09
 IDIUse=1 WtCom= 1.00D+00 WtEn= 0.00D+00
 Coeff-Com:  0.783D-01 0.957D-01 0.427D+00 0.399D+00
 Coeff:      0.783D-01 0.957D-01 0.427D+00 0.399D+00
 Gap=     0.143 Goal=   None    Shift=    0.000
 RMSDP=4.66D-07 MaxDP=1.20D-05 DE=-1.36D-09 OVMax= 2.24D-05

 Cycle  11  Pass 1  IDiag  1:
 E= -283.894804798087     Delta-E=       -0.000000001241 Rises=F Damp=F
 DIIS: error= 1.72D-06 at cycle   5 NSaved=   5.
 NSaved= 5 IEnMin= 5 EnMin= -283.894804798087     IErMin= 5 ErrMin= 1.72D-06
 ErrMax= 1.72D-06  0.00D+00 EMaxC= 1.00D-01 BMatC= 2.79D-10 BMatP= 1.82D-09
 IDIUse=1 WtCom= 1.00D+00 WtEn= 0.00D+00
 Coeff-Com:  0.898D-02 0.290D-01 0.202D+00 0.301D+00 0.459D+00
 Coeff:      0.898D-02 0.290D-01 0.202D+00 0.301D+00 0.459D+00
 Gap=     0.143 Goal=   None    Shift=    0.000
 RMSDP=1.81D-07 MaxDP=3.41D-06 DE=-1.24D-09 OVMax= 7.48D-06

 Cycle  12  Pass 1  IDiag  1:
 E= -283.894804798305     Delta-E=       -0.000000000218 Rises=F Damp=F
 DIIS: error= 2.42D-07 at cycle   6 NSaved=   6.
 NSaved= 6 IEnMin= 6 EnMin= -283.894804798305     IErMin= 6 ErrMin= 2.42D-07
 ErrMax= 2.42D-07  0.00D+00 EMaxC= 1.00D-01 BMatC= 1.71D-11 BMatP= 2.79D-10
 IDIUse=1 WtCom= 1.00D+00 WtEn= 0.00D+00
 Coeff-Com: -0.942D-03 0.939D-02 0.854D-01 0.146D+00 0.285D+00 0.475D+00
 Coeff:     -0.942D-03 0.939D-02 0.854D-01 0.146D+00 0.285D+00 0.475D+00
 Gap=     0.143 Goal=   None    Shift=    0.000
 RMSDP=3.88D-08 MaxDP=7.46D-07 DE=-2.18D-10 OVMax= 9.61D-07

 Cycle  13  Pass 1  IDiag  1:
 E= -283.894804798318     Delta-E=       -0.000000000013 Rises=F Damp=F
 DIIS: error= 2.27D-08 at cycle   7 NSaved=   7.
 NSaved= 7 IEnMin= 7 EnMin= -283.894804798318     IErMin= 7 ErrMin= 2.27D-08
 ErrMax= 2.27D-08  0.00D+00 EMaxC= 1.00D-01 BMatC= 1.09D-13 BMatP= 1.71D-11
 IDIUse=1 WtCom= 1.00D+00 WtEn= 0.00D+00
 Coeff-Com: -0.498D-03 0.281D-02 0.277D-01 0.470D-01 0.987D-01 0.171D+00
 Coeff-Com:  0.653D+00
 Coeff:     -0.498D-03 0.281D-02 0.277D-01 0.470D-01 0.987D-01 0.171D+00
 Coeff:      0.653D+00
 Gap=     0.143 Goal=   None    Shift=    0.000
 RMSDP=5.48D-09 MaxDP=8.48D-08 DE=-1.32D-11 OVMax= 1.19D-07

 SCF Done:  E(RPBE-PBE) =  -283.894804798     A.U. after   13 cycles
            NFock= 13  Conv=0.55D-08     -V/T= 2.0086
 KE= 2.814790483545D+02 PE=-1.022855351091D+03 EE= 2.788545082410D+02
 Leave Link  502 at Fri Sep 11 13:10:24 2015, MaxMem=    33554432 cpu:        21.2
 (Enter /usr/local/research/Gaussian09/g09-revD.01/g09/l508.exe)
 QCSCF skips out because SCF is already converged.
 Leave Link  508 at Fri Sep 11 13:10:24 2015, MaxMem=    33554432 cpu:         0.0
 (Enter /usr/local/research/Gaussian09/g09-revD.01/g09/l701.exe)
 Compute integral first derivatives.
 ... and contract with generalized density number  0.
   1 Symmetry operations used in ECPInt.
 ECPInt:  NShTT=    1035 NPrTT=    3735 LenC2=    1033 LenP2D=    3184.
 LDataN:  DoStor=T MaxTD1= 5 Len=  102
 Leave Link  701 at Fri Sep 11 13:10:24 2015, MaxMem=    33554432 cpu:         0.3
 (Enter /usr/local/research/Gaussian09/g09-revD.01/g09/l702.exe)
 L702 exits ... SP integral derivatives will be done elsewhere.
 Leave Link  702 at Fri Sep 11 13:10:24 2015, MaxMem=    33554432 cpu:         0.1
 (Enter /usr/local/research/Gaussian09/g09-revD.01/g09/l703.exe)
 Compute integral first derivatives, UseDBF=F ICtDFT=           0.
 Integral derivatives from FoFJK, PRISM(SPDF).
 Calling FoFJK, ICntrl=      2527 FMM=F ISym2X=0 I1Cent= 0 IOpClX= 0 NMat=1 NMatS=1 NMatT=0.
 FoFJK:  IHMeth= 1 ICntrl=    2527 DoSepK=F KAlg= 0 I1Cent=   0 FoldK=F
 IRaf=         0 NMat=   1 IRICut=       1 DoRegI=T DoRafI=F ISym2E= 0.
 FoFCou: FMM=F IPFlag=           0 FMFlag=      100000 FMFlg1=         800
         NFxFlg=           0 DoJE=F BraDBF=F KetDBF=F FulRan=T
         wScrn=  0.000000 ICntrl=    2527 IOpCl=  0 I1Cent=           0 NGrid=           0
         NMat0=    1 NMatS0=      1 NMatT0=    0 NMatD0=    1 NMtDS0=    0 NMtDT0=    0
 Symmetry not used in FoFCou.
 Leave Link  703 at Fri Sep 11 13:10:32 2015, MaxMem=    33554432 cpu:         7.4
 (Enter /usr/local/research/Gaussian09/g09-revD.01/g09/l716.exe)
 Dipole        = 3.89930855D-02-5.89964446D-01 3.54721181D-01
 ***** Axes restored to original set *****
 -------------------------------------------------------------------
 Center     Atomic                   Forces (Hartrees/Bohr)
 Number     Number              X              Y              Z
 -------------------------------------------------------------------
      1        7          -0.014706364    0.024285756    0.018413782
      2        6           0.010282890   -0.011915676   -0.000428284
      3        1           0.000143060   -0.009183697   -0.006582036
      4        1           0.007471789   -0.007060926   -0.009226518
      5        6           0.016595610    0.011214507   -0.001581645
      6        1          -0.005124016    0.003366195   -0.000791009
      7        1          -0.004088405    0.001364621   -0.000443547
      8        8          -0.012271209    0.002458304   -0.000417070
      9        8          -0.003010375   -0.019136914    0.001228761
     10        1           0.004707020    0.004607830   -0.000172434
 -------------------------------------------------------------------
 Cartesian Forces:  Max     0.024285756 RMS     0.009572918
 Leave Link  716 at Fri Sep 11 13:10:32 2015, MaxMem=    33554432 cpu:         0.0
 (Enter /usr/local/research/Gaussian09/g09-revD.01/g09/l103.exe)

 GradGradGradGradGradGradGradGradGradGradGradGradGradGradGradGradGradGrad
 Berny optimization.
 Using GEDIIS/GDIIS optimizer.
 FormGI is forming the generalized inverse of G from B-inverse, IUseBI=4.
 Internal  Forces:  Max     0.013455246 RMS     0.005530001
 Search for a local minimum.
 Step number   2 out of a maximum of   46
 All quantities printed in internal units (Hartrees-Bohrs-Radians)
 RMS Force = .55300D-02 SwitMx=.10000D-02 MixMth= 1
 Mixed Optimization -- RFO/linear search
 Update second derivatives using D2CorX and points    1    2
 DE= -1.91D-02 DEPred=-1.81D-02 R= 1.05D+00
 TightC=F SS=  1.41D+00  RLast= 3.30D-01 DXNew= 5.0454D-01 9.8931D-01
 Trust test= 1.05D+00 RLast= 3.30D-01 DXMaxT set to 5.05D-01
 ITU=  1  0
 Use linear search instead of GDIIS.
     Eigenvalues ---    0.00477   0.00687   0.01045   0.01295   0.02986
     Eigenvalues ---    0.05356   0.06500   0.09701   0.12896   0.14361
     Eigenvalues ---    0.16000   0.16901   0.22072   0.23663   0.25007
     Eigenvalues ---    0.30519   0.33849   0.34007   0.37940   0.42808
     Eigenvalues ---    0.47540   0.48217   0.55153   0.79653
 RFO step:  Lambda=-4.26618293D-03 EMin= 4.77071991D-03
 Quartic linear search produced a step of  0.37154.
 Iteration  1 RMS(Cart)=  0.05493958 RMS(Int)=  0.00308283
 Iteration  2 RMS(Cart)=  0.00378859 RMS(Int)=  0.00072966
 Iteration  3 RMS(Cart)=  0.00001865 RMS(Int)=  0.00072953
 Iteration  4 RMS(Cart)=  0.00000003 RMS(Int)=  0.00072953
 ITry= 1 IFail=0 DXMaxC= 1.11D-01 DCOld= 1.00D+10 DXMaxT= 5.05D-01 DXLimC= 3.00D+00 Rises=F
 Variable       Old X    -DE/DX   Delta X   Delta X   Delta X     New X
                                 (Linear)    (Quad)   (Total)
    R1        2.76150  -0.01061   0.00865  -0.04498  -0.03633   2.72517
    R2        1.92395   0.00197   0.01219  -0.00494   0.00726   1.93121
    R3        1.91624   0.00284   0.00933   0.00000   0.00933   1.92557
    R4        2.85010   0.00279  -0.00967   0.02134   0.01167   2.86177
    R5        2.10831   0.00393   0.01298   0.00381   0.01678   2.12509
    R6        2.09940   0.00208   0.00967  -0.00051   0.00915   2.10855
    R7        2.31673  -0.01233  -0.02277  -0.00212  -0.02489   2.29184
    R8        2.59173  -0.01346  -0.04108  -0.00811  -0.04919   2.54254
    R9        1.84166   0.00659   0.01024   0.00737   0.01761   1.85927
    A1        1.93611   0.00497   0.03509  -0.02864   0.00486   1.94097
    A2        1.93135   0.00920   0.03332   0.00834   0.04010   1.97145
    A3        2.13774  -0.01309  -0.05243  -0.10070  -0.15568   1.98205
    A4        1.91350   0.00059  -0.00496   0.01603   0.01097   1.92447
    A5        1.99741   0.00371   0.03260   0.00887   0.04143   2.03884
    A6        1.93153   0.00022   0.00812  -0.00277   0.00522   1.93675
    A7        1.85979  -0.00226  -0.01312  -0.00551  -0.01920   1.84058
    A8        1.87882   0.00016  -0.00605   0.00743   0.00116   1.87998
    A9        1.87796  -0.00270  -0.01839  -0.02451  -0.04379   1.83417
   A10        2.14797   0.00792   0.01991   0.02432   0.04322   2.19118
   A11        2.00709  -0.01137  -0.03244  -0.02910  -0.06253   1.94455
   A12        2.12757   0.00346   0.01232   0.00769   0.01902   2.14659
   A13        1.82346   0.00006  -0.03257   0.03510   0.00252   1.82598
    D1       -0.57622  -0.00186  -0.00297  -0.07028  -0.07283  -0.64905
    D2        1.51188  -0.00186  -0.00170  -0.05979  -0.06077   1.45110
    D3       -2.64611  -0.00255   0.00252  -0.08774  -0.08450  -2.73061
    D4       -3.00835   0.00301   0.00800   0.09970   0.10688  -2.90147
    D5       -0.92025   0.00301   0.00927   0.11019   0.11894  -0.80132
    D6        1.20494   0.00232   0.01350   0.08224   0.09521   1.30016
    D7        0.06860   0.00164   0.02549   0.01352   0.03873   0.10733
    D8       -3.10839   0.00181   0.01234   0.10537   0.11769  -2.99070
    D9       -2.10192  -0.00181  -0.00315  -0.00351  -0.00635  -2.10827
   D10        1.00427  -0.00164  -0.01630   0.08835   0.07261   1.07688
   D11        2.17083   0.00234   0.02875   0.02391   0.05224   2.22307
   D12       -1.00616   0.00251   0.01559   0.11576   0.13120  -0.87496
   D13       -3.12504  -0.00006   0.00615  -0.03816  -0.03157   3.12657
   D14       -0.01839   0.00021  -0.00683   0.05289   0.04562   0.02724
         Item               Value     Threshold  Converged?
 Maximum Force            0.013455     0.000450     NO 
 RMS     Force            0.005530     0.000300     NO 
 Maximum Displacement     0.111242     0.001800     NO 
 RMS     Displacement     0.055504     0.001200     NO 
 Predicted change in Energy=-4.159549D-03
 Lowest energy point so far.  Saving SCF results.
 GradGradGradGradGradGradGradGradGradGradGradGradGradGradGradGradGradGrad

 Leave Link  103 at Fri Sep 11 13:10:32 2015, MaxMem=    33554432 cpu:         0.0
 (Enter /usr/local/research/Gaussian09/g09-revD.01/g09/l202.exe)
                          Input orientation:                          
 ---------------------------------------------------------------------
 Center     Atomic      Atomic             Coordinates (Angstroms)
 Number     Number       Type             X           Y           Z
 ---------------------------------------------------------------------
      1          7           0        0.022070   -1.899046    0.072413
      2          6           0       -0.778948   -0.703147   -0.016185
      3          1           0        0.879884   -1.810943   -0.476016
      4          1           0       -0.505703   -2.746797   -0.130233
      5          6           0        0.109813    0.522748   -0.041639
      6          1           0       -1.448675   -0.606505   -0.914370
      7          1           0       -1.458496   -0.611625    0.864068
      8          8           0        1.321130    0.514305   -0.100836
      9          8           0       -0.610601    1.654099    0.064617
     10          1           0        0.057606    2.376151    0.051797
 ---------------------------------------------------------------------
                    Distance matrix (angstroms):
                    1          2          3          4          5
     1  N    0.000000
     2  C    1.442100   0.000000
     3  H    1.021950   2.047041   0.000000
     4  H    1.018967   2.064988   1.707408   0.000000
     5  C    2.426066   1.514385   2.495558   3.328158   0.000000
     6  H    2.192600   1.124550   2.658009   2.466763   2.113234
     7  H    2.115714   1.115799   2.949951   2.540750   2.136984
     8  O    2.746240   2.428926   2.396296   3.738044   1.212792
     9  O    3.609040   2.364630   3.810557   4.406456   1.345452
    10  H    4.275395   3.191633   4.299592   5.157039   1.856491
                    6          7          8          9         10
     6  H    0.000000
     7  H    1.778472   0.000000
     8  O    3.096752   3.150409   0.000000
     9  O    2.602137   2.547852   2.249020   0.000000
    10  H    3.478304   3.447485   2.255275   0.983882   0.000000
 Stoichiometry    C2H5NO2
 Framework group  C1[X(C2H5NO2)]
 Deg. of freedom    24
 Full point group                 C1      NOp   1
 RotChk:  IX=0 Diff= 4.61D-02
 Largest Abelian subgroup         C1      NOp   1
 Largest concise Abelian subgroup C1      NOp   1
                         Standard orientation:                         
 ---------------------------------------------------------------------
 Center     Atomic      Atomic             Coordinates (Angstroms)
 Number     Number       Type             X           Y           Z
 ---------------------------------------------------------------------
      1          7           0       -1.882747    0.129223   -0.118781
      2          6           0       -0.731347   -0.724298    0.040693
      3          1           0       -1.755351    1.017215    0.370732
      4          1           0       -2.758934   -0.338902    0.108039
      5          6           0        0.539063    0.099757    0.021810
      6          1           0       -0.678848   -1.334424    0.983881
      7          1           0       -0.666734   -1.466880   -0.789611
      8          8           0        0.593428    1.311091   -0.002244
      9          8           0        1.632167   -0.683606   -0.019493
     10          1           0        2.388034   -0.054200   -0.042697
 ---------------------------------------------------------------------
 Rotational constants (GHZ):     10.3910225      3.9775625      2.9423854
 Leave Link  202 at Fri Sep 11 13:10:32 2015, MaxMem=    33554432 cpu:         0.0
 (Enter /usr/local/research/Gaussian09/g09-revD.01/g09/l301.exe)
 Standard basis: def2SVP (5D, 7F)
 Ernie: Thresh=  0.10000D-02 Tol=  0.10000D-05 Strict=F.
 There are   100 symmetry adapted cartesian basis functions of A   symmetry.
 There are    95 symmetry adapted basis functions of A   symmetry.
    95 basis functions,   160 primitive gaussians,   100 cartesian basis functions
    20 alpha electrons       20 beta electrons
       nuclear repulsion energy       179.5689178100 Hartrees.
 IExCor= 1009 DFT=T Ex=PBE Corr=PBE ExCW=0 ScaHFX=  0.000000
 ScaDFX=  1.000000  1.000000  1.000000  1.000000 ScalE2=  1.000000  1.000000
 IRadAn=      0 IRanWt=     -1 IRanGd=            0 ICorTp=0 IEmpDi=  4
 NAtoms=   10 NActive=   10 NUniq=   10 SFac= 1.00D+00 NAtFMM=   60 NAOKFM=F Big=F
 Integral buffers will be    131072 words long.
 Raffenetti 2 integral format.
 Two-electron integral symmetry is turned on.
 Leave Link  301 at Fri Sep 11 13:10:32 2015, MaxMem=    33554432 cpu:         0.1
 (Enter /usr/local/research/Gaussian09/g09-revD.01/g09/l302.exe)
 NPDir=0 NMtPBC=     1 NCelOv=     1 NCel=       1 NClECP=     1 NCelD=      1
         NCelK=      1 NCelE2=     1 NClLst=     1 CellRange=     0.0.
 One-electron integrals computed using PRISM.
   1 Symmetry operations used in ECPInt.
 ECPInt:  NShTT=    1035 NPrTT=    3735 LenC2=    1033 LenP2D=    3188.
 LDataN:  DoStor=T MaxTD1= 4 Len=   56
 NBasis=    95 RedAO= T EigKep=  2.47D-03  NBF=    95
 NBsUse=    95 1.00D-06 EigRej= -1.00D+00 NBFU=    95
 Precomputing XC quadrature grid using
 IXCGrd= 4 IRadAn=           0 IRanWt=          -1 IRanGd=           0 AccXCQ= 0.00D+00.
 Generated NRdTot=       0 NPtTot=           0 NUsed=           0 NTot=          32
 NSgBfM=   100   100   100   100   100 MxSgAt=    10 MxSgA2=    10.
 Leave Link  302 at Fri Sep 11 13:10:32 2015, MaxMem=    33554432 cpu:         0.5
 (Enter /usr/local/research/Gaussian09/g09-revD.01/g09/l303.exe)
 DipDrv:  MaxL=1.
 Leave Link  303 at Fri Sep 11 13:10:33 2015, MaxMem=    33554432 cpu:         0.1
 (Enter /usr/local/research/Gaussian09/g09-revD.01/g09/l401.exe)
 Initial guess from the checkpoint file:  "3-gtt.chk"
 B after Tr=     0.000000    0.000000    0.000000
         Rot=    0.999943    0.002805    0.000668    0.010270 Ang=   1.22 deg.
 Guess basis will be translated and rotated to current coordinates.
 JPrj=2 DoOrth=T DoCkMO=T.
 Generating alternative initial guess.
 ExpMin= 1.22D-01 ExpMax= 2.27D+03 ExpMxC= 3.41D+02 IAcc=1 IRadAn=         1 AccDes= 0.00D+00
 Harris functional with IExCor= 1009 and IRadAn=       1 diagonalized for initial guess.
 HarFok:  IExCor= 1009 AccDes= 0.00D+00 IRadAn=         1 IDoV= 1 UseB2=F ITyADJ=14
 ICtDFT=  3500011 ScaDFX=  1.000000  1.000000  1.000000  1.000000
 FoFCou: FMM=F IPFlag=           0 FMFlag=      100000 FMFlg1=           0
         NFxFlg=           0 DoJE=T BraDBF=F KetDBF=T FulRan=T
         wScrn=  0.000000 ICntrl=     500 IOpCl=  0 I1Cent=   200000004 NGrid=           0
         NMat0=    1 NMatS0=      1 NMatT0=    0 NMatD0=    1 NMtDS0=    0 NMtDT0=    0
 Petite list used in FoFCou.
 Harris En= -283.971889496637    
 Leave Link  401 at Fri Sep 11 13:10:34 2015, MaxMem=    33554432 cpu:         1.0
 (Enter /usr/local/research/Gaussian09/g09-revD.01/g09/l502.exe)
 Closed shell SCF:
 Using DIIS extrapolation, IDIIS=  1040.
 Integral symmetry usage will be decided dynamically.
 Keep J ints in memory in canonical form, NReq=11359554.
 IVT=       37302 IEndB=       37302 NGot=    33554432 MDV=    23118051
 LenX=    23118051 LenY=    23107610
 Requested convergence on RMS density matrix=1.00D-08 within  64 cycles.
 Requested convergence on MAX density matrix=1.00D-06.
 Requested convergence on             energy=1.00D-06.
 No special actions if energy rises.
 FoFCou: FMM=F IPFlag=           0 FMFlag=           0 FMFlg1=           0
         NFxFlg=           0 DoJE=F BraDBF=F KetDBF=F FulRan=T
         wScrn=  0.000000 ICntrl=     600 IOpCl=  0 I1Cent=           0 NGrid=           0
         NMat0=    1 NMatS0=   4560 NMatT0=    0 NMatD0=    1 NMtDS0=    0 NMtDT0=    0
 Symmetry not used in FoFCou.
 Integral accuracy reduced to 1.0D-05 until final iterations.

 Cycle   1  Pass 0  IDiag  1:
 E= -283.892425898204    
 DIIS: error= 3.94D-03 at cycle   1 NSaved=   1.
 NSaved= 1 IEnMin= 1 EnMin= -283.892425898204     IErMin= 1 ErrMin= 3.94D-03
 ErrMax= 3.94D-03  0.00D+00 EMaxC= 1.00D-01 BMatC= 4.58D-03 BMatP= 4.58D-03
 IDIUse=3 WtCom= 9.61D-01 WtEn= 3.94D-02
 Coeff-Com:  0.100D+01
 Coeff-En:   0.100D+01
 Coeff:      0.100D+01
 Gap=     0.503 Goal=   None    Shift=    0.000
 GapD=    0.503 DampG=2.000 DampE=1.000 DampFc=2.0000 IDamp=-1.
 RMSDP=1.53D-03 MaxDP=2.12D-02              OVMax= 2.37D-02

 Cycle   2  Pass 0  IDiag  1:
 E= -283.898632959144     Delta-E=       -0.006207060940 Rises=F Damp=F
 DIIS: error= 1.14D-03 at cycle   2 NSaved=   2.
 NSaved= 2 IEnMin= 2 EnMin= -283.898632959144     IErMin= 2 ErrMin= 1.14D-03
 ErrMax= 1.14D-03  0.00D+00 EMaxC= 1.00D-01 BMatC= 2.96D-04 BMatP= 4.58D-03
 IDIUse=3 WtCom= 9.89D-01 WtEn= 1.14D-02
 Coeff-Com:  0.794D-01 0.921D+00
 Coeff-En:   0.000D+00 0.100D+01
 Coeff:      0.785D-01 0.921D+00
 Gap=     0.158 Goal=   None    Shift=    0.000
 RMSDP=4.68D-04 MaxDP=9.80D-03 DE=-6.21D-03 OVMax= 2.02D-02

 Cycle   3  Pass 0  IDiag  1:
 E= -283.897939919991     Delta-E=        0.000693039153 Rises=F Damp=F
 DIIS: error= 2.74D-03 at cycle   3 NSaved=   3.
 NSaved= 3 IEnMin= 2 EnMin= -283.898632959144     IErMin= 2 ErrMin= 1.14D-03
 ErrMax= 2.74D-03  0.00D+00 EMaxC= 1.00D-01 BMatC= 1.15D-03 BMatP= 2.96D-04
 IDIUse=3 WtCom= 1.60D-01 WtEn= 8.40D-01
 Coeff-Com:  0.125D-01 0.668D+00 0.319D+00
 Coeff-En:   0.000D+00 0.743D+00 0.257D+00
 Coeff:      0.200D-02 0.731D+00 0.267D+00
 Gap=     0.156 Goal=   None    Shift=    0.000
 RMSDP=2.90D-04 MaxDP=6.95D-03 DE= 6.93D-04 OVMax= 1.37D-02

 Cycle   4  Pass 0  IDiag  1:
 E= -283.898849807000     Delta-E=       -0.000909887009 Rises=F Damp=F
 DIIS: error= 5.57D-04 at cycle   4 NSaved=   4.
 NSaved= 4 IEnMin= 4 EnMin= -283.898849807000     IErMin= 4 ErrMin= 5.57D-04
 ErrMax= 5.57D-04  0.00D+00 EMaxC= 1.00D-01 BMatC= 4.13D-05 BMatP= 2.96D-04
 IDIUse=3 WtCom= 9.94D-01 WtEn= 5.57D-03
 Coeff-Com: -0.738D-03 0.356D+00 0.127D+00 0.518D+00
 Coeff-En:   0.000D+00 0.557D-01 0.000D+00 0.944D+00
 Coeff:     -0.734D-03 0.354D+00 0.126D+00 0.521D+00
 Gap=     0.155 Goal=   None    Shift=    0.000
 RMSDP=7.47D-05 MaxDP=2.40D-03 DE=-9.10D-04 OVMax= 2.00D-03

 Cycle   5  Pass 0  IDiag  1:
 E= -283.898882650937     Delta-E=       -0.000032843937 Rises=F Damp=F
 DIIS: error= 1.89D-04 at cycle   5 NSaved=   5.
 NSaved= 5 IEnMin= 5 EnMin= -283.898882650937     IErMin= 5 ErrMin= 1.89D-04
 ErrMax= 1.89D-04  0.00D+00 EMaxC= 1.00D-01 BMatC= 5.18D-06 BMatP= 4.13D-05
 IDIUse=3 WtCom= 9.98D-01 WtEn= 1.89D-03
 Coeff-Com: -0.267D-03 0.172D+00 0.539D-01 0.329D+00 0.446D+00
 Coeff-En:   0.000D+00 0.000D+00 0.000D+00 0.168D-01 0.983D+00
 Coeff:     -0.267D-03 0.171D+00 0.538D-01 0.328D+00 0.447D+00
 Gap=     0.155 Goal=   None    Shift=    0.000
 RMSDP=1.98D-05 MaxDP=5.44D-04 DE=-3.28D-05 OVMax= 5.68D-04

 Cycle   6  Pass 0  IDiag  1:
 E= -283.898886676234     Delta-E=       -0.000004025297 Rises=F Damp=F
 DIIS: error= 4.53D-05 at cycle   6 NSaved=   6.
 NSaved= 6 IEnMin= 6 EnMin= -283.898886676234     IErMin= 6 ErrMin= 4.53D-05
 ErrMax= 4.53D-05  0.00D+00 EMaxC= 1.00D-01 BMatC= 3.39D-07 BMatP= 5.18D-06
 IDIUse=1 WtCom= 1.00D+00 WtEn= 0.00D+00
 Coeff-Com:  0.936D-04 0.751D-01 0.220D-01 0.161D+00 0.273D+00 0.469D+00
 Coeff:      0.936D-04 0.751D-01 0.220D-01 0.161D+00 0.273D+00 0.469D+00
 Gap=     0.155 Goal=   None    Shift=    0.000
 RMSDP=6.87D-06 MaxDP=1.33D-04 DE=-4.03D-06 OVMax= 1.34D-04

 Initial convergence to 1.0D-05 achieved.  Increase integral accuracy.
 Cycle   7  Pass 1  IDiag  1:
 E= -283.898868916368     Delta-E=        0.000017759866 Rises=F Damp=F
 DIIS: error= 5.98D-06 at cycle   1 NSaved=   1.
 NSaved= 1 IEnMin= 1 EnMin= -283.898868916368     IErMin= 1 ErrMin= 5.98D-06
 ErrMax= 5.98D-06  0.00D+00 EMaxC= 1.00D-01 BMatC= 1.15D-08 BMatP= 1.15D-08
 IDIUse=1 WtCom= 1.00D+00 WtEn= 0.00D+00
 Coeff-Com:  0.100D+01
 Coeff:      0.100D+01
 Gap=     0.155 Goal=   None    Shift=    0.000
 RMSDP=6.87D-06 MaxDP=1.33D-04 DE= 1.78D-05 OVMax= 5.79D-05

 Cycle   8  Pass 1  IDiag  1:
 E= -283.898868920495     Delta-E=       -0.000000004127 Rises=F Damp=F
 DIIS: error= 7.41D-06 at cycle   2 NSaved=   2.
 NSaved= 2 IEnMin= 2 EnMin= -283.898868920495     IErMin= 1 ErrMin= 5.98D-06
 ErrMax= 7.41D-06  0.00D+00 EMaxC= 1.00D-01 BMatC= 1.20D-08 BMatP= 1.15D-08
 IDIUse=1 WtCom= 1.00D+00 WtEn= 0.00D+00
 Coeff-Com:  0.506D+00 0.494D+00
 Coeff:      0.506D+00 0.494D+00
 Gap=     0.155 Goal=   None    Shift=    0.000
 RMSDP=1.48D-06 MaxDP=2.79D-05 DE=-4.13D-09 OVMax= 3.42D-05

 Cycle   9  Pass 1  IDiag  1:
 E= -283.898868929388     Delta-E=       -0.000000008892 Rises=F Damp=F
 DIIS: error= 3.58D-06 at cycle   3 NSaved=   3.
 NSaved= 3 IEnMin= 3 EnMin= -283.898868929388     IErMin= 3 ErrMin= 3.58D-06
 ErrMax= 3.58D-06  0.00D+00 EMaxC= 1.00D-01 BMatC= 1.86D-09 BMatP= 1.15D-08
 IDIUse=1 WtCom= 1.00D+00 WtEn= 0.00D+00
 Coeff-Com:  0.100D+00 0.285D+00 0.615D+00
 Coeff:      0.100D+00 0.285D+00 0.615D+00
 Gap=     0.155 Goal=   None    Shift=    0.000
 RMSDP=4.31D-07 MaxDP=1.10D-05 DE=-8.89D-09 OVMax= 1.03D-05

 Cycle  10  Pass 1  IDiag  1:
 E= -283.898868930561     Delta-E=       -0.000000001173 Rises=F Damp=F
 DIIS: error= 1.27D-06 at cycle   4 NSaved=   4.
 NSaved= 4 IEnMin= 4 EnMin= -283.898868930561     IErMin= 4 ErrMin= 1.27D-06
 ErrMax= 1.27D-06  0.00D+00 EMaxC= 1.00D-01 BMatC= 3.12D-10 BMatP= 1.86D-09
 IDIUse=1 WtCom= 1.00D+00 WtEn= 0.00D+00
 Coeff-Com:  0.130D-01 0.126D+00 0.380D+00 0.480D+00
 Coeff:      0.130D-01 0.126D+00 0.380D+00 0.480D+00
 Gap=     0.155 Goal=   None    Shift=    0.000
 RMSDP=2.20D-07 MaxDP=4.01D-06 DE=-1.17D-09 OVMax= 6.97D-06

 Cycle  11  Pass 1  IDiag  1:
 E= -283.898868930805     Delta-E=       -0.000000000244 Rises=F Damp=F
 DIIS: error= 5.09D-07 at cycle   5 NSaved=   5.
 NSaved= 5 IEnMin= 5 EnMin= -283.898868930805     IErMin= 5 ErrMin= 5.09D-07
 ErrMax= 5.09D-07  0.00D+00 EMaxC= 1.00D-01 BMatC= 4.44D-11 BMatP= 3.12D-10
 IDIUse=1 WtCom= 1.00D+00 WtEn= 0.00D+00
 Coeff-Com:  0.237D-02 0.669D-01 0.217D+00 0.331D+00 0.383D+00
 Coeff:      0.237D-02 0.669D-01 0.217D+00 0.331D+00 0.383D+00
 Gap=     0.155 Goal=   None    Shift=    0.000
 RMSDP=7.41D-08 MaxDP=1.96D-06 DE=-2.44D-10 OVMax= 3.50D-06

 Cycle  12  Pass 1  IDiag  1:
 E= -283.898868930834     Delta-E=       -0.000000000029 Rises=F Damp=F
 DIIS: error= 2.39D-07 at cycle   6 NSaved=   6.
 NSaved= 6 IEnMin= 6 EnMin= -283.898868930834     IErMin= 6 ErrMin= 2.39D-07
 ErrMax= 2.39D-07  0.00D+00 EMaxC= 1.00D-01 BMatC= 8.12D-12 BMatP= 4.44D-11
 IDIUse=1 WtCom= 1.00D+00 WtEn= 0.00D+00
 Coeff-Com: -0.183D-03 0.314D-01 0.107D+00 0.180D+00 0.293D+00 0.390D+00
[...]
        18        -0.1337     -0.0555     -0.0287
        19         0.4905      0.0962      0.1421
        20        -0.1572      0.0629      0.8531
        21        -0.0284     -0.1349     -0.2811
        22         0.4288     -0.0973     -0.2800
        23         0.2378     -0.0736     -0.3166
        24        -0.1641      0.4494     -0.2942
 Ground to excited state transition velocity quadrupole moments (Au):
       state          XX          YY          ZZ          XY          XZ          YZ
         1         0.1232     -0.1009     -0.0721     -0.0370     -0.0048      0.0628
         2        -0.0030     -0.0140      0.0202      0.0080     -0.0303     -0.0252
         3        -0.1615     -0.0091      0.0812      0.0394     -0.0171     -0.1040
         4         0.2426      0.0317     -0.1562     -0.0414     -0.4063      0.2419
         5         0.4217     -0.0531     -0.0119      0.0758      0.0146      0.0083
         6        -0.0456      0.1317     -0.2007      0.0250      0.4409      0.1542
         7         0.0307      0.2165      0.0428      0.1061     -0.0511      0.0301
         8        -0.8112      0.4031      0.1479      0.3236     -0.2487     -0.0019
         9        -0.1673      0.2032      0.2004     -0.0110     -0.2323     -0.2034
        10        -0.2002      0.0663      0.0633      0.0312      0.0973     -0.3355
        11         0.5942     -0.1901     -0.0498      0.1772      0.1126     -0.0980
        12        -0.3365      0.1727     -0.0462      0.0863      0.3001      0.0743
        13        -0.1014      0.1778      0.1190      0.2382     -0.0823     -0.0623
        14         0.4686     -0.2264     -0.0512     -0.2810      0.0402      0.0883
        15         0.0938     -0.1095     -0.1776     -0.0657      0.1034      0.1241
        16         0.0827      0.0508     -0.0208      0.0306      0.0498      0.1329
        17        -0.0835     -0.1896      0.1290      0.2174     -0.1138     -0.1206
        18         0.0319     -0.0189     -0.0924      0.0579      0.1026      0.0507
        19        -0.0852      0.1389      0.1409     -0.0654     -0.0704      0.0781
        20         0.8177     -0.4193     -0.0818      0.3008     -0.0416     -0.0413
        21         0.1726      0.0178      0.1541     -0.2058     -0.2142     -0.0269
        22        -0.0653      0.0537     -0.1971     -0.1590      0.0176      0.3001
        23        -0.3905      0.1562      0.1395     -0.0944     -0.0269     -0.0008
        24        -0.3662     -0.0277      0.1276     -0.1006     -0.4113     -0.1603
 <0|del|b> * <b|rxdel|0> + <0|del|b> * <b|delr+rdel|0>
 Rotatory Strengths (R) in cgs (10**-40 erg-esu-cm/Gauss)
       state          XX          YY          ZZ    R(velocity)    E-M Angle
         1         3.7529     -3.1885      5.0722      1.8789       79.58
         2        -3.4369      0.9379     -4.5956     -2.3649       95.94
         3         2.6802      1.1756      1.4867      1.7808       57.01
         4        14.1978    -44.8094     -3.5740    -11.3952      104.41
         5        12.6809      9.0028     -1.1146      6.8564       83.82
         6         6.1388    -13.6649      1.4876     -2.0128       91.56
         7         1.2036     -8.0768     -6.1669     -4.3467      109.76
         8        76.0744      3.2781     -1.3338     26.0062       43.23
         9       -42.1637     -7.8641     42.9525     -2.3584       92.79
        10        19.2137      7.7337     -1.7408      8.4022       83.16
        11       -14.8034     32.2114     10.9430      9.4503       71.44
        12       -30.1656    -20.1783    -13.7516    -21.3652      141.38
        13       -24.4575    -21.0302     -4.7241    -16.7373      133.09
        14        11.0232     31.7759      8.6143     17.1378       56.32
        15       -34.5034      6.1783     -4.5339    -10.9530      106.11
        16       -17.1941      9.5302    -33.5725    -13.7455      141.87
        17       -15.4602    -18.8136     13.4956     -6.9260      110.08
        18        -3.4863      2.4911     -3.4538     -1.4830      105.61
        19        -2.0082    -43.7916    -35.9475    -27.2491      148.83
        20       -13.5503    -35.4497    -10.8295    -19.9432      101.79
        21       -20.8030      5.0349      9.1508     -2.2058       94.02
        22         4.7720     87.9573      6.7860     33.1718       52.39
        23         4.7604     27.7462     29.1056     20.5374       47.72
        24        -8.7068     47.6135     -0.0667     12.9467       75.82
 1/2[<0|r|b>*<b|rxdel|0> + (<0|rxdel|b>*<b|r|0>)*]
 Rotatory Strengths (R) in cgs (10**-40 erg-esu-cm/Gauss)
       state          XX          YY          ZZ     R(length)
         1         1.5921     17.2884     -9.8096      3.0236
         2         0.0377      1.9314      1.2245      1.0646
         3         1.3672      1.2092      4.8869      2.4877
         4       -51.3331     14.9233      5.4763    -10.3111
         5        -9.6554      8.9403     17.3952      5.5600
         6         0.9697     31.2852    -25.4785      2.2588
         7       -12.4683     -6.3171      2.6474     -5.3793
         8       -14.4641     38.5192     56.1103     26.7218
         9        -5.5233    -52.6139     42.4514     -5.2286
        10        -3.9376      1.5899     23.0463      6.8995
        11        38.4452     -1.8382    -14.4954      7.3705
        12       -32.0919    -41.6337     -0.9093    -24.8783
        13       -11.2392    -34.4335     -4.9836    -16.8854
        14        42.3592     10.8603     11.2937     21.5044
        15        23.6510    -48.9700     -0.0637     -8.4609
        16         5.0195    -46.4024     -1.8461    -14.4097
        17         6.5158     -6.9840    -19.6024     -6.6902
        18        -6.2009     -1.1987      2.9875     -1.4707
        19       -86.7179     -7.0646      6.4010    -29.1272
        20       -35.5984     11.6903    -29.9207    -17.9429
        21         8.2219      9.4689    -18.9624     -0.4239
        22       103.8044    -19.6998     21.5983     35.2343
        23        46.9886      6.3218      3.1778     18.8294
        24        44.4590     -7.9604     -1.6900     11.6029
  1/2[<0|del|b>*<b|r|0> + (<0|r|b>*<b|del|0>)*] (Au)
       state          X           Y           Z        Dip. S.   Osc.(frdel)
         1        -0.0033     -0.0051     -0.0012      0.0096      0.0064
         2        -0.0002      0.0000     -0.0015      0.0017      0.0011
         3         0.0000     -0.0009     -0.0011      0.0020      0.0013
         4        -0.0082     -0.0004      0.0024      0.0062      0.0042
         5        -0.0762     -0.0079     -0.0009      0.0850      0.0567
         6         0.0000     -0.0023     -0.0700      0.0723      0.0482
         7        -0.0112     -0.0004     -0.0001      0.0117      0.0078
         8        -0.0041     -0.0032     -0.0127      0.0200      0.0133
         9        -0.0606     -0.0702     -0.0304      0.1613      0.1075
        10         0.0000     -0.0004     -0.0164      0.0168      0.0112
        11        -0.0309     -0.0001     -0.0022      0.0332      0.0221
        12        -0.0029     -0.0064     -0.0013      0.0107      0.0071
        13        -0.0460     -0.0334     -0.0009      0.0803      0.0535
        14        -0.0560     -0.0171     -0.0004      0.0736      0.0490
        15        -0.0024     -0.0561     -0.0109      0.0694      0.0463
        16        -0.0077     -0.0486     -0.0009      0.0572      0.0381
        17        -0.0031     -0.0155     -0.0031      0.0218      0.0145
        18        -0.0015     -0.0004     -0.0075      0.0093      0.0062
        19        -0.0217     -0.0024     -0.0015      0.0257      0.0171
        20        -0.0382     -0.0327     -0.0012      0.0721      0.0481
        21        -0.0616     -0.0027     -0.0039      0.0681      0.0454
        22        -0.0414     -0.0302     -0.0043      0.0758      0.0505
        23        -0.0325     -0.0039     -0.0001      0.0364      0.0243
        24        -0.0578     -0.0004      0.0001      0.0581      0.0387

 Excitation energies and oscillator strengths:
 
 Excited State   1:      Singlet-A      4.4546 eV  278.33 nm  f=0.0084  <S**2>=0.000
      20 -> 21         0.70616
 This state for optimization and/or second-order correction.
 Total Energy, E(TD-HF/TD-KS) =  -283.736846031    
 Copying the excited state density for this state as the 1-particle RhoCI density.
 
 Excited State   2:      Singlet-A      5.7720 eV  214.80 nm  f=0.0008  <S**2>=0.000
      19 -> 21         0.70648
 
 Excited State   3:      Singlet-A      5.9825 eV  207.24 nm  f=0.0016  <S**2>=0.000
      20 -> 22         0.70583
 
 Excited State   4:      Singlet-A      6.4069 eV  193.52 nm  f=0.0064  <S**2>=0.000
      20 -> 23         0.70399
 
 Excited State   5:      Singlet-A      7.2503 eV  171.01 nm  f=0.0540  <S**2>=0.000
      18 -> 21         0.18288
      19 -> 22         0.68139
 
 Excited State   6:      Singlet-A      7.4937 eV  165.45 nm  f=0.0333  <S**2>=0.000
      20 -> 24         0.70039
 
 Excited State   7:      Singlet-A      7.5387 eV  164.46 nm  f=0.0078  <S**2>=0.000
      18 -> 21         0.18859
      19 -> 23         0.67799
 
 Excited State   8:      Singlet-A      8.3004 eV  149.37 nm  f=0.0150  <S**2>=0.000
      18 -> 21         0.40542
      18 -> 22        -0.24399
      18 -> 23         0.25606
      19 -> 22        -0.11260
      19 -> 23        -0.13914
      20 -> 25         0.37764
 
 Excited State   9:      Singlet-A      8.3680 eV  148.16 nm  f=0.0973  <S**2>=0.000
      17 -> 21        -0.13573
      18 -> 21        -0.24342
      18 -> 22         0.19522
      18 -> 23        -0.19528
      19 -> 24        -0.14416
      20 -> 25         0.53421
 
 Excited State  10:      Singlet-A      8.4745 eV  146.30 nm  f=0.0081  <S**2>=0.000
      17 -> 21         0.61163
      18 -> 22         0.30680
 
 Excited State  11:      Singlet-A      8.5281 eV  145.38 nm  f=0.0186  <S**2>=0.000
      17 -> 21        -0.12972
      18 -> 22         0.15849
      20 -> 25        -0.12509
      20 -> 26         0.65297
 
 Excited State  12:      Singlet-A      8.5342 eV  145.28 nm  f=0.0077  <S**2>=0.000
      17 -> 21        -0.28252
      18 -> 21         0.18312
      18 -> 22         0.52641
      18 -> 23         0.18664
      20 -> 26        -0.22660
 
 Excited State  13:      Singlet-A      8.6125 eV  143.96 nm  f=0.0557  <S**2>=0.000
      19 -> 24         0.67234
      20 -> 25         0.17709
 
 Excited State  14:      Singlet-A      8.8760 eV  139.68 nm  f=0.0554  <S**2>=0.000
      16 -> 21         0.22417
      18 -> 21        -0.28148
      18 -> 23         0.57511
      19 -> 25        -0.10432
 
 Excited State  15:      Singlet-A      9.0930 eV  136.35 nm  f=0.0456  <S**2>=0.000
      15 -> 21         0.31107
      16 -> 21         0.55800
      18 -> 21         0.12495
      18 -> 23        -0.11249
      19 -> 25         0.16320
 
 Excited State  16:      Singlet-A      9.3863 eV  132.09 nm  f=0.0392  <S**2>=0.000
      15 -> 21        -0.11476
      18 -> 21        -0.11326
      19 -> 25         0.66941
 
 Excited State  17:      Singlet-A      9.6097 eV  129.02 nm  f=0.0135  <S**2>=0.000
      15 -> 21         0.38252
      19 -> 26         0.57126
 
 Excited State  18:      Singlet-A      9.7517 eV  127.14 nm  f=0.0064  <S**2>=0.000
      14 -> 21        -0.20143
      15 -> 21        -0.16660
      18 -> 24         0.63706
      19 -> 26         0.12633
 
 Excited State  19:      Singlet-A      9.7560 eV  127.09 nm  f=0.0185  <S**2>=0.000
      14 -> 21         0.38005
      15 -> 21         0.33057
      16 -> 21        -0.14688
      18 -> 24         0.30308
      19 -> 26        -0.32208
 
 Excited State  20:      Singlet-A      9.9458 eV  124.66 nm  f=0.0424  <S**2>=0.000
      17 -> 22         0.68949
 
 Excited State  21:      Singlet-A     10.0860 eV  122.93 nm  f=0.0460  <S**2>=0.000
      12 -> 21        -0.17194
      14 -> 21        -0.40487
      15 -> 21         0.19243
      16 -> 21        -0.15407
      19 -> 26        -0.15056
      20 -> 27         0.43765
 
 Excited State  22:      Singlet-A     10.1512 eV  122.14 nm  f=0.0525  <S**2>=0.000
      12 -> 21         0.14871
      14 -> 21         0.29984
      15 -> 21        -0.20296
      16 -> 21         0.16104
      20 -> 27         0.53082
 
 Excited State  23:      Singlet-A     10.2144 eV  121.38 nm  f=0.0233  <S**2>=0.000
      16 -> 22         0.10709
      17 -> 23         0.68744
 
 Excited State  24:      Singlet-A     10.3813 eV  119.43 nm  f=0.0375  <S**2>=0.000
      16 -> 22         0.69050
 SavETr:  write IOETrn=   770 NScale= 10 NData=  16 NLR=1 NState=   24 LETran=     442.
 Leave Link  914 at Fri Sep 11 13:23:08 2015, MaxMem=    33554432 cpu:       223.8
 (Enter /usr/local/research/Gaussian09/g09-revD.01/g09/l601.exe)
 Copying SCF densities to generalized density rwf, IOpCl= 0 IROHF=0.

 **********************************************************************

            Population analysis using the SCF density.

 **********************************************************************

 Orbital symmetries:
       Occupied  (A) (A) (A) (A) (A) (A) (A) (A) (A) (A) (A) (A)
                 (A) (A) (A) (A) (A) (A) (A) (A)
       Virtual   (A) (A) (A) (A) (A) (A) (A) (A) (A) (A) (A) (A)
                 (A) (A) (A) (A) (A) (A) (A) (A) (A) (A) (A) (A)
                 (A) (A) (A) (A) (A) (A) (A) (A) (A) (A) (A) (A)
                 (A) (A) (A) (A) (A) (A) (A) (A) (A) (A) (A) (A)
                 (A) (A) (A) (A) (A) (A) (A) (A) (A) (A) (A) (A)
                 (A) (A) (A) (A) (A) (A) (A) (A) (A) (A) (A) (A)
                 (A) (A) (A)
 The electronic state is 1-A.
 Alpha  occ. eigenvalues --  -18.80891 -18.75105 -13.97613 -10.01950  -9.93621
 Alpha  occ. eigenvalues --   -1.00590  -0.91792  -0.79774  -0.64617  -0.53704
 Alpha  occ. eigenvalues --   -0.46521  -0.43287  -0.42351  -0.38820  -0.37591
 Alpha  occ. eigenvalues --   -0.35033  -0.33295  -0.28019  -0.23587  -0.19172
 Alpha virt. eigenvalues --   -0.03169   0.02748   0.03933   0.07792   0.10618
 Alpha virt. eigenvalues --    0.11461   0.17555   0.19715   0.24310   0.29840
 Alpha virt. eigenvalues --    0.41084   0.42960   0.43799   0.47912   0.50505
 Alpha virt. eigenvalues --    0.51228   0.53841   0.59429   0.60105   0.60722
 Alpha virt. eigenvalues --    0.62074   0.63418   0.72218   0.76160   0.79656
 Alpha virt. eigenvalues --    0.85088   0.88405   0.90964   0.93934   1.00284
 Alpha virt. eigenvalues --    1.07047   1.09227   1.15106   1.18300   1.23776
 Alpha virt. eigenvalues --    1.31906   1.34118   1.45254   1.46023   1.53142
 Alpha virt. eigenvalues --    1.55681   1.56434   1.66854   1.68200   1.70077
 Alpha virt. eigenvalues --    1.71476   1.76239   1.78508   1.83576   1.89445
 Alpha virt. eigenvalues --    1.94926   2.00242   2.05430   2.12115   2.20483
 Alpha virt. eigenvalues --    2.22931   2.25371   2.38122   2.52840   2.53769
 Alpha virt. eigenvalues --    2.61069   2.65175   2.75073   2.76716   2.78222
 Alpha virt. eigenvalues --    2.82171   2.90557   2.98639   3.08430   3.10052
 Alpha virt. eigenvalues --    3.12901   3.27817   3.38106   3.52371   3.65108
          Condensed to atoms (all electrons):
               1          2          3          4          5          6
     1  N    6.273884   0.349819   0.343725   0.330501  -0.021650  -0.016331
     2  C    0.349819   4.993962  -0.035996  -0.008672   0.210564   0.297244
     3  H    0.343725  -0.035996   0.596817  -0.025310  -0.020155  -0.002447
     4  H    0.330501  -0.008672  -0.025310   0.614750   0.005579  -0.014621
     5  C   -0.021650   0.210564  -0.020155   0.005579   4.706656   0.013954
     6  H   -0.016331   0.297244  -0.002447  -0.014621   0.013954   0.721941
     7  H   -0.041003   0.343944   0.010247   0.000053  -0.005041  -0.039237
     8  O   -0.005062  -0.104905   0.027626   0.000218   0.683773  -0.001393
     9  O    0.001454  -0.121330   0.001206  -0.000186   0.382300   0.005005
    10  H   -0.000297   0.019448  -0.000233   0.000033  -0.009615  -0.001214
               7          8          9         10
     1  N   -0.041003  -0.005062   0.001454  -0.000297
     2  C    0.343944  -0.104905  -0.121330   0.019448
     3  H    0.010247   0.027626   0.001206  -0.000233
     4  H    0.000053   0.000218  -0.000186   0.000033
     5  C   -0.005041   0.683773   0.382300  -0.009615
     6  H   -0.039237  -0.001393   0.005005  -0.001214
     7  H    0.675856   0.003789   0.009825  -0.000976
     8  O    0.003789   7.662532  -0.076598   0.010859
     9  O    0.009825  -0.076598   7.661942   0.289499
    10  H   -0.000976   0.010859   0.289499   0.514879
 Mulliken charges:
               1
     1  N   -0.215040
     2  C    0.055923
     3  H    0.104520
     4  H    0.097654
     5  C    0.053637
     6  H    0.037098
     7  H    0.042544
     8  O   -0.200839
     9  O   -0.153115
    10  H    0.177619
 Sum of Mulliken charges =   0.00000
 Mulliken charges with hydrogens summed into heavy atoms:
               1
     1  N   -0.012866
     2  C    0.135565
     5  C    0.053637
     8  O   -0.200839
     9  O    0.024504
 Electronic spatial extent (au):  <R**2>=            417.9221
 Charge=              0.0000 electrons
 Dipole moment (field-independent basis, Debye):
    X=              0.2650    Y=             -1.2891    Z=              1.3169  Tot=              1.8618
 Quadrupole moment (field-independent basis, Debye-Ang):
   XX=            -22.7665   YY=            -32.3960   ZZ=            -30.1014
   XY=              0.8437   XZ=             -3.2318   YZ=              0.0982
 Traceless Quadrupole moment (field-independent basis, Debye-Ang):
   XX=              5.6548   YY=             -3.9748   ZZ=             -1.6801
   XY=              0.8437   XZ=             -3.2318   YZ=              0.0982
 Octapole moment (field-independent basis, Debye-Ang**2):
  XXX=             13.4063  YYY=             -1.2233  ZZZ=              1.2739  XYY=             -4.7331
  XXY=              2.9115  XXZ=              6.1357  XZZ=              4.2919  YZZ=              0.4085
  YYZ=             -0.2369  XYZ=             -0.8226
 Hexadecapole moment (field-independent basis, Debye-Ang**3):
 XXXX=           -242.1315 YYYY=           -139.3051 ZZZZ=            -36.5772 XXXY=              5.4458
 XXXZ=            -18.1361 YYYX=             -5.1524 YYYZ=              1.6718 ZZZX=             -3.4141
 ZZZY=              0.4355 XXYY=            -77.5623 XXZZ=            -64.8584 YYZZ=            -27.8895
 XXYZ=              0.5884 YYXZ=             -0.5966 ZZXY=              0.2912
 N-N= 1.790389552266D+02 E-N=-1.023657578739D+03  KE= 2.815509145130D+02
 Leave Link  601 at Fri Sep 11 13:23:08 2015, MaxMem=    33554432 cpu:         0.1
 (Enter /usr/local/research/Gaussian09/g09-revD.01/g09/l9999.exe)
 1\1\GINC-HEISENBERG\SP\RPBEPBE TD-FC\def2SVP\C2H5N1O2\LEIN\11-Sep-2015
 \0\\#p td=(nstates=24) pbepbe def2svp geom=allcheck guess=read\\-- Gly
 cine conformers --\\0,1\N,0,0.013221583,-1.903717962,0.1719726473\C,0,
 -0.7866848492,-0.7097801694,-0.0118521809\H,0,0.8788545587,-1.80023127
 3,-0.3751001345\H,0,-0.4790028194,-2.7281135884,-0.1872859823\C,0,0.10
 45811507,0.51767214,-0.0497456911\H,0,-1.3860611878,-0.651527852,-0.96
 15298685\H,0,-1.5289433605,-0.5777418601,0.8061582367\O,0,1.290657196,
 0.5012896976,-0.3209976545\O,0,-0.5840169161,1.6559466003,0.2031696965
 \H,0,0.0654733245,2.385444647,0.0988273213\\Version=EM64L-G09RevD.01\S
 tate=1-A\HF=-283.9005495\RMSD=3.169e-09\PG=C01 [X(C2H5N1O2)]\\@


 OF ALL THE WONDERS OF THE UNIVERSE, THE GREATEST IS MAN.

                                    -- ARISTOTLE
 Job cpu time:       0 days  0 hours  3 minutes 49.8 seconds.
 File lengths (MBytes):  RWF=     46 Int=      0 D2E=      0 Chk=      9 Scr=      1
 Normal termination of Gaussian 09 at Fri Sep 11 13:23:08 2015.
