 Entering Gaussian System, Link 0=g09
 Initial command:
 /usr/local/research/Gaussian09/g09-revD.01/g09/l1.exe "/scratch/lein/Gau-2576.inp" -scrdir="/scratch/lein/"
 Entering Link 1 = /usr/local/research/Gaussian09/g09-revD.01/g09/l1.exe PID=      2579.
  
 Copyright (c) 1988,1990,1992,1993,1995,1998,2003,2009,2013,
            Gaussian, Inc.  All Rights Reserved.
  
 This is part of the Gaussian(R) 09 program.  It is based on
 the Gaussian(R) 03 system (copyright 2003, Gaussian, Inc.),
 the Gaussian(R) 98 system (copyright 1998, Gaussian, Inc.),
 the Gaussian(R) 94 system (copyright 1995, Gaussian, Inc.),
 the Gaussian 92(TM) system (copyright 1992, Gaussian, Inc.),
 the Gaussian 90(TM) system (copyright 1990, Gaussian, Inc.),
 the Gaussian 88(TM) system (copyright 1988, Gaussian, Inc.),
 the Gaussian 86(TM) system (copyright 1986, Carnegie Mellon
 University), and the Gaussian 82(TM) system (copyright 1983,
 Carnegie Mellon University). Gaussian is a federally registered
 trademark of Gaussian, Inc.
  
 This software contains proprietary and confidential information,
 including trade secrets, belonging to Gaussian, Inc.
  
 This software is provided under written license and may be
 used, copied, transmitted, or stored only in accord with that
 written license.
  
 The following legend is applicable only to US Government
 contracts under FAR:
  
                    RESTRICTED RIGHTS LEGEND
  
 Use, reproduction and disclosure by the US Government is
 subject to restrictions as set forth in subparagraphs (a)
 and (c) of the Commercial Computer Software - Restricted
 Rights clause in FAR 52.227-19.
  
 Gaussian, Inc.
 340 Quinnipiac St., Bldg. 40, Wallingford CT 06492
  
  
 ---------------------------------------------------------------
 Warning -- This program may not be used in any manner that
 competes with the business of Gaussian, Inc. or will provide
 assistance to any competitor of Gaussian, Inc.  The licensee
 of this program is prohibited from giving any competitor of
 Gaussian, Inc. access to this program.  By using this program,
 the user acknowledges that Gaussian, Inc. is engaged in the
 business of creating and licensing software in the field of
 computational chemistry and represents and warrants to the
 licensee that it is not a competitor of Gaussian, Inc. and that
 it will not use this program in any manner prohibited above.
 ---------------------------------------------------------------
  

 Cite this work as:
 Gaussian 09, Revision D.01,
 M. J. Frisch, G. W. Trucks, H. B. Schlegel, G. E. Scuseria, 
 M. A. Robb, J. R. Cheeseman, G. Scalmani, V. Barone, B. Mennucci, 
 G. A. Petersson, H. Nakatsuji, M. Caricato, X. Li, H. P. Hratchian, 
 A. F. Izmaylov, J. Bloino, G. Zheng, J. L. Sonnenberg, M. Hada, 
 M. Ehara, K. Toyota, R. Fukuda, J. Hasegawa, M. Ishida, T. Nakajima, 
 Y. Honda, O. Kitao, H. Nakai, T. Vreven, J. A. Montgomery, Jr., 
 J. E. Peralta, F. Ogliaro, M. Bearpark, J. J. Heyd, E. Brothers, 
 K. N. Kudin, V. N. Staroverov, T. Keith, R. Kobayashi, J. Normand, 
 K. Raghavachari, A. Rendell, J. C. Burant, S. S. Iyengar, J. Tomasi, 
 M. Cossi, N. Rega, J. M. Millam, M. Klene, J. E. Knox, J. B. Cross, 
 V. Bakken, C. Adamo, J. Jaramillo, R. Gomperts, R. E. Stratmann, 
 O. Yazyev, A. J. Austin, R. Cammi, C. Pomelli, J. W. Ochterski, 
 R. L. Martin, K. Morokuma, V. G. Zakrzewski, G. A. Voth, 
 P. Salvador, J. J. Dannenberg, S. Dapprich, A. D. Daniels, 
 O. Farkas, J. B. Foresman, J. V. Ortiz, J. Cioslowski, 
 and D. J. Fox, Gaussian, Inc., Wallingford CT, 2013.
 
 ******************************************
 Gaussian 09:  EM64L-G09RevD.01 24-Apr-2013
                11-Sep-2015 
 ******************************************
 %chk=4-tct.chk
 ----------------------------------
 #p opt freq pbepbe def2svp scf=xqc
 ----------------------------------
 1/14=-1,18=20,19=15,26=3,38=1/1,3;
 2/9=110,12=2,17=6,18=5,40=1/2;
 3/5=43,7=101,11=2,16=1,25=1,30=1,71=1,74=1009/1,2,3;
 4//1;
 5/5=2,8=3,13=1,38=5/2,8;
 6/7=2,8=2,9=2,10=2,28=1/1;
 7//1,2,3,16;
 1/14=-1,18=20,19=15,26=3/3(2);
 2/9=110/2;
 99//99;
 2/9=110/2;
 3/5=43,7=101,11=2,16=1,25=1,30=1,71=1,74=1009/1,2,3;
 4/5=5,16=3,69=1/1;
 5/5=2,8=3,13=1,38=5/2,8;
 7//1,2,3,16;
 1/14=-1,18=20,19=15,26=3/3(-5);
 2/9=110/2;
 6/7=2,8=2,9=2,10=2,19=2,28=1/1;
 99/9=1/99;
 Leave Link    1 at Fri Sep 11 13:23:09 2015, MaxMem=           0 cpu:         0.0
 (Enter /usr/local/research/Gaussian09/g09-revD.01/g09/l101.exe)
 ------------------------
 -- Glycine conformers --
 ------------------------
 Symbolic Z-matrix:
 Charge =  0 Multiplicity = 1
 N                     0.21809  -1.84603   0. 
 C                    -0.77997  -0.79559   0. 
 H                     0.51748  -1.93228   0.92982 
 H                     0.51748  -1.93228  -0.92982 
 C                    -0.11126   0.57149   0. 
 H                    -1.39982  -0.87166  -0.91821 
 H                    -1.39982  -0.87166   0.91821 
 O                    -0.81377   1.6155    0. 
 O                     1.31533   0.66956   0. 
 H                     1.5729    1.59428   0. 
 
 NAtoms=     10 NQM=       10 NQMF=       0 NMMI=      0 NMMIF=      0
                NMic=       0 NMicF=      0.
                    Isotopes and Nuclear Properties:
 (Nuclear quadrupole moments (NQMom) in fm**2, nuclear magnetic moments (NMagM)
  in nuclear magnetons)

  Atom         1           2           3           4           5           6           7           8           9          10
 IAtWgt=          14          12           1           1          12           1           1          16          16           1
 AtmWgt=  14.0030740  12.0000000   1.0078250   1.0078250  12.0000000   1.0078250   1.0078250  15.9949146  15.9949146   1.0078250
 NucSpn=           2           0           1           1           0           1           1           0           0           1
 AtZEff=   0.0000000   0.0000000   0.0000000   0.0000000   0.0000000   0.0000000   0.0000000   0.0000000   0.0000000   0.0000000
 NQMom=    2.0440000   0.0000000   0.0000000   0.0000000   0.0000000   0.0000000   0.0000000   0.0000000   0.0000000   0.0000000
 NMagM=    0.4037610   0.0000000   2.7928460   2.7928460   0.0000000   2.7928460   2.7928460   0.0000000   0.0000000   2.7928460
 AtZNuc=   7.0000000   6.0000000   1.0000000   1.0000000   6.0000000   1.0000000   1.0000000   8.0000000   8.0000000   1.0000000
 Leave Link  101 at Fri Sep 11 13:23:09 2015, MaxMem=    33554432 cpu:         0.2
 (Enter /usr/local/research/Gaussian09/g09-revD.01/g09/l103.exe)

 GradGradGradGradGradGradGradGradGradGradGradGradGradGradGradGradGradGrad
 Berny optimization.
 Initialization pass.
                           ----------------------------
                           !    Initial Parameters    !
                           ! (Angstroms and Degrees)  !
 --------------------------                            --------------------------
 ! Name  Definition              Value          Derivative Info.                !
 --------------------------------------------------------------------------------
 ! R1    R(1,2)                  1.449          estimate D2E/DX2                !
 ! R2    R(1,3)                  0.9806         estimate D2E/DX2                !
 ! R3    R(1,4)                  0.9806         estimate D2E/DX2                !
 ! R4    R(2,5)                  1.5219         estimate D2E/DX2                !
 ! R5    R(2,6)                  1.1105         estimate D2E/DX2                !
 ! R6    R(2,7)                  1.1105         estimate D2E/DX2                !
 ! R7    R(5,8)                  1.2584         estimate D2E/DX2                !
 ! R8    R(5,9)                  1.43           estimate D2E/DX2                !
 ! R9    R(9,10)                 0.9599         estimate D2E/DX2                !
 ! A1    A(2,1,3)              105.9058         estimate D2E/DX2                !
 ! A2    A(2,1,4)              105.9058         estimate D2E/DX2                !
 ! A3    A(3,1,4)              142.95           estimate D2E/DX2                !
 ! A4    A(1,2,5)              110.3992         estimate D2E/DX2                !
 ! A5    A(1,2,6)              109.5623         estimate D2E/DX2                !
 ! A6    A(1,2,7)              109.5623         estimate D2E/DX2                !
 ! A7    A(5,2,6)              107.8666         estimate D2E/DX2                !
 ! A8    A(5,2,7)              107.8666         estimate D2E/DX2                !
 ! A9    A(6,2,7)              111.558          estimate D2E/DX2                !
 ! A10   A(2,5,8)              119.9981         estimate D2E/DX2                !
 ! A11   A(2,5,9)              119.9981         estimate D2E/DX2                !
 ! A12   A(8,5,9)              120.0038         estimate D2E/DX2                !
 ! A13   A(5,9,10)             109.497          estimate D2E/DX2                !
 ! D1    D(3,1,2,5)             80.3783         estimate D2E/DX2                !
 ! D2    D(3,1,2,6)           -160.9672         estimate D2E/DX2                !
 ! D3    D(3,1,2,7)            -38.2762         estimate D2E/DX2                !
 ! D4    D(4,1,2,5)            -80.3783         estimate D2E/DX2                !
 ! D5    D(4,1,2,6)             38.2762         estimate D2E/DX2                !
 ! D6    D(4,1,2,7)            160.9672         estimate D2E/DX2                !
 ! D7    D(1,2,5,8)            180.0            estimate D2E/DX2                !
 ! D8    D(1,2,5,9)              0.0            estimate D2E/DX2                !
 ! D9    D(6,2,5,8)             60.3163         estimate D2E/DX2                !
 ! D10   D(6,2,5,9)           -119.6837         estimate D2E/DX2                !
 ! D11   D(7,2,5,8)            -60.3163         estimate D2E/DX2                !
 ! D12   D(7,2,5,9)            119.6837         estimate D2E/DX2                !
 ! D13   D(2,5,9,10)           180.0            estimate D2E/DX2                !
 ! D14   D(8,5,9,10)             0.0            estimate D2E/DX2                !
 --------------------------------------------------------------------------------
 Trust Radius=3.00D-01 FncErr=1.00D-07 GrdErr=1.00D-06
 Number of steps in this run=     46 maximum allowed number of steps=    100.
 GradGradGradGradGradGradGradGradGradGradGradGradGradGradGradGradGradGrad

 Leave Link  103 at Fri Sep 11 13:23:09 2015, MaxMem=    33554432 cpu:         0.0
 (Enter /usr/local/research/Gaussian09/g09-revD.01/g09/l202.exe)
                          Input orientation:                          
 ---------------------------------------------------------------------
 Center     Atomic      Atomic             Coordinates (Angstroms)
 Number     Number       Type             X           Y           Z
 ---------------------------------------------------------------------
      1          7           0        0.218093   -1.846029    0.000000
      2          6           0       -0.779965   -0.795595    0.000000
      3          1           0        0.517482   -1.932283    0.929825
      4          1           0        0.517482   -1.932283   -0.929825
      5          6           0       -0.111260    0.571488    0.000000
      6          1           0       -1.399825   -0.871659   -0.918214
      7          1           0       -1.399825   -0.871659    0.918214
      8          8           0       -0.813769    1.615498    0.000000
      9          8           0        1.315331    0.669560    0.000000
     10          1           0        1.572896    1.594276    0.000000
 ---------------------------------------------------------------------
                    Distance matrix (angstroms):
                    1          2          3          4          5
     1  N    0.000000
     2  C    1.448976   0.000000
     3  H    0.980636   1.959592   0.000000
     4  H    0.980636   1.959592   1.859650   0.000000
     5  C    2.439849   1.521868   2.743858   2.743858   0.000000
     6  H    2.100041   1.110463   2.866398   2.191146   2.141539
     7  H    2.100041   1.110463   2.191146   2.866398   2.141539
     8  O    3.612051   2.411329   3.901737   3.901737   1.258363
     9  O    2.744471   2.556744   2.875886   2.875886   1.429957
    10  H    3.697457   3.353720   3.796721   3.796721   1.970400
                    6          7          8          9         10
     6  H    0.000000
     7  H    1.836428   0.000000
     8  O    2.715239   2.715239   0.000000
     9  O    3.254311   3.254311   2.329778   0.000000
    10  H    3.970015   3.970015   2.386760   0.959917   0.000000
 Stoichiometry    C2H5NO2
 Framework group  CS[SG(C2HNO2),X(H4)]
 Deg. of freedom    15
 Full point group                 CS      NOp   2
 Largest Abelian subgroup         CS      NOp   2
 Largest concise Abelian subgroup CS      NOp   2
                         Standard orientation:                         
 ---------------------------------------------------------------------
 Center     Atomic      Atomic             Coordinates (Angstroms)
 Number     Number       Type             X           Y           Z
 ---------------------------------------------------------------------
      1          7           0       -0.138696   -1.853686    0.000000
      2          6           0       -0.917627   -0.631884    0.000000
      3          1           0        0.138692   -1.995562    0.929825
      4          1           0        0.138692   -1.995562   -0.929825
      5          6           0        0.000000    0.582217    0.000000
      6          1           0       -1.540599   -0.588094   -0.918214
      7          1           0       -1.540599   -0.588094    0.918214
      8          8           0       -0.490057    1.741234    0.000000
      9          8           0        1.419041    0.405865    0.000000
     10          1           0        1.848570    1.264320    0.000000
 ---------------------------------------------------------------------
 Rotational constants (GHZ):      8.9172554      4.1044044      2.9226011
 Leave Link  202 at Fri Sep 11 13:23:09 2015, MaxMem=    33554432 cpu:         0.0
 (Enter /usr/local/research/Gaussian09/g09-revD.01/g09/l301.exe)
 Standard basis: def2SVP (5D, 7F)
 Ernie: Thresh=  0.10000D-02 Tol=  0.10000D-05 Strict=F.
 There are    69 symmetry adapted cartesian basis functions of A'  symmetry.
 There are    31 symmetry adapted cartesian basis functions of A"  symmetry.
 There are    64 symmetry adapted basis functions of A'  symmetry.
 There are    31 symmetry adapted basis functions of A"  symmetry.
    95 basis functions,   160 primitive gaussians,   100 cartesian basis functions
    20 alpha electrons       20 beta electrons
       nuclear repulsion energy       176.7907198247 Hartrees.
 IExCor= 1009 DFT=T Ex=PBE Corr=PBE ExCW=0 ScaHFX=  0.000000
 ScaDFX=  1.000000  1.000000  1.000000  1.000000 ScalE2=  1.000000  1.000000
 IRadAn=      0 IRanWt=     -1 IRanGd=            0 ICorTp=0 IEmpDi=  4
 NAtoms=   10 NActive=   10 NUniq=    8 SFac= 1.56D+00 NAtFMM=   60 NAOKFM=F Big=F
 Integral buffers will be    131072 words long.
 Raffenetti 2 integral format.
 Two-electron integral symmetry is turned on.
 Leave Link  301 at Fri Sep 11 13:23:09 2015, MaxMem=    33554432 cpu:         0.1
 (Enter /usr/local/research/Gaussian09/g09-revD.01/g09/l302.exe)
 NPDir=0 NMtPBC=     1 NCelOv=     1 NCel=       1 NClECP=     1 NCelD=      1
         NCelK=      1 NCelE2=     1 NClLst=     1 CellRange=     0.0.
 One-electron integrals computed using PRISM.
 One-electron integral symmetry used in STVInt
   2 Symmetry operations used in ECPInt.
 ECPInt:  NShTT=    1035 NPrTT=    3735 LenC2=    1033 LenP2D=    3192.
 LDataN:  DoStor=T MaxTD1= 4 Len=   56
 NBasis=    95 RedAO= T EigKep=  3.48D-03  NBF=    64    31
 NBsUse=    95 1.00D-06 EigRej= -1.00D+00 NBFU=    64    31
 Precomputing XC quadrature grid using
 IXCGrd= 4 IRadAn=           0 IRanWt=          -1 IRanGd=           0 AccXCQ= 0.00D+00.
 Generated NRdTot=       0 NPtTot=           0 NUsed=           0 NTot=          32
 NSgBfM=   100   100   100   100   100 MxSgAt=    10 MxSgA2=    10.
 Leave Link  302 at Fri Sep 11 13:23:09 2015, MaxMem=    33554432 cpu:         0.4
 (Enter /usr/local/research/Gaussian09/g09-revD.01/g09/l303.exe)
 DipDrv:  MaxL=1.
 Leave Link  303 at Fri Sep 11 13:23:10 2015, MaxMem=    33554432 cpu:         0.1
 (Enter /usr/local/research/Gaussian09/g09-revD.01/g09/l401.exe)
 ExpMin= 1.22D-01 ExpMax= 2.27D+03 ExpMxC= 3.41D+02 IAcc=1 IRadAn=         1 AccDes= 0.00D+00
 Harris functional with IExCor= 1009 and IRadAn=       1 diagonalized for initial guess.
 HarFok:  IExCor= 1009 AccDes= 0.00D+00 IRadAn=         1 IDoV= 1 UseB2=F ITyADJ=14
 ICtDFT=  3500011 ScaDFX=  1.000000  1.000000  1.000000  1.000000
 FoFCou: FMM=F IPFlag=           0 FMFlag=      100000 FMFlg1=           0
         NFxFlg=           0 DoJE=T BraDBF=F KetDBF=T FulRan=T
         wScrn=  0.000000 ICntrl=     500 IOpCl=  0 I1Cent=   200000004 NGrid=           0
         NMat0=    1 NMatS0=      1 NMatT0=    0 NMatD0=    1 NMtDS0=    0 NMtDT0=    0
 Petite list used in FoFCou.
 Harris En= -283.944427228671    
 JPrj=0 DoOrth=F DoCkMO=F.
 Initial guess orbital symmetries:
       Occupied  (A') (A') (A') (A') (A') (A') (A') (A') (A') (A')
                 (A") (A') (A') (A') (A") (A') (A") (A") (A') (A')
       Virtual   (A") (A') (A') (A") (A') (A') (A") (A') (A') (A')
                 (A') (A') (A") (A') (A') (A") (A') (A') (A') (A")
                 (A') (A") (A') (A') (A') (A") (A') (A") (A') (A')
                 (A') (A") (A") (A') (A') (A") (A') (A") (A") (A')
                 (A") (A") (A') (A') (A') (A") (A') (A') (A') (A")
                 (A') (A') (A") (A') (A') (A') (A') (A") (A") (A')
                 (A') (A") (A') (A') (A") (A") (A") (A') (A") (A')
                 (A") (A') (A') (A') (A')
 The electronic state of the initial guess is 1-A'.
 Leave Link  401 at Fri Sep 11 13:23:10 2015, MaxMem=    33554432 cpu:         0.6
 (Enter /usr/local/research/Gaussian09/g09-revD.01/g09/l502.exe)
 Closed shell SCF:
 Using DIIS extrapolation, IDIIS=  1040.
 Integral symmetry usage will be decided dynamically.
 Keep J ints in memory in symmetry-blocked form, NReq=15735152.
 IVT=       37446 IEndB=       37446 NGot=    33554432 MDV=    28218456
 LenX=    28218456 LenY=    28208015
 Requested convergence on RMS density matrix=1.00D-08 within  64 cycles.
 Requested convergence on MAX density matrix=1.00D-06.
 Requested convergence on             energy=1.00D-06.
 No special actions if energy rises.
 FoFCou: FMM=F IPFlag=           0 FMFlag=           0 FMFlg1=           0
         NFxFlg=           0 DoJE=F BraDBF=F KetDBF=F FulRan=T
         wScrn=  0.000000 ICntrl=     600 IOpCl=  0 I1Cent=           0 NGrid=           0
         NMat0=    1 NMatS0=   4560 NMatT0=    0 NMatD0=    1 NMtDS0=    0 NMtDT0=    0
 Petite list used in FoFCou.
 Integral accuracy reduced to 1.0D-05 until final iterations.

 Cycle   1  Pass 0  IDiag  1:
 E= -283.706259787013    
 DIIS: error= 4.38D-02 at cycle   1 NSaved=   1.
 NSaved= 1 IEnMin= 1 EnMin= -283.706259787013     IErMin= 1 ErrMin= 4.38D-02
 ErrMax= 4.38D-02  0.00D+00 EMaxC= 1.00D-01 BMatC= 1.84D-01 BMatP= 1.84D-01
 IDIUse=3 WtCom= 5.62D-01 WtEn= 4.38D-01
 Coeff-Com:  0.100D+01
 Coeff-En:   0.100D+01
 Coeff:      0.100D+01
 Gap=     0.013 Goal=   None    Shift=    0.000
 GapD=    0.013 DampG=0.250 DampE=0.500 DampFc=0.2500 IDamp=-1.
 Damping current iteration by 2.50D-01
 RMSDP=1.36D-02 MaxDP=2.56D-01              OVMax= 3.42D-01

 Cycle   2  Pass 0  IDiag  1:
 E= -283.753265174261     Delta-E=       -0.047005387249 Rises=F Damp=T
 DIIS: error= 1.34D-02 at cycle   2 NSaved=   2.
 NSaved= 2 IEnMin= 2 EnMin= -283.753265174261     IErMin= 2 ErrMin= 1.34D-02
 ErrMax= 1.34D-02  0.00D+00 EMaxC= 1.00D-01 BMatC= 1.92D-02 BMatP= 1.84D-01
 IDIUse=3 WtCom= 8.66D-01 WtEn= 1.34D-01
 Coeff-Com: -0.187D+00 0.119D+01
 Coeff-En:   0.171D+00 0.829D+00
 Coeff:     -0.139D+00 0.114D+01
 Gap=     0.070 Goal=   None    Shift=    0.000
 RMSDP=3.85D-03 MaxDP=7.43D-02 DE=-4.70D-02 OVMax= 2.78D-01

 Cycle   3  Pass 0  IDiag  1:
 E= -283.783658388368     Delta-E=       -0.030393214106 Rises=F Damp=F
 DIIS: error= 2.74D-02 at cycle   3 NSaved=   3.
 NSaved= 3 IEnMin= 3 EnMin= -283.783658388368     IErMin= 2 ErrMin= 1.34D-02
 ErrMax= 2.74D-02  0.00D+00 EMaxC= 1.00D-01 BMatC= 9.20D-02 BMatP= 1.92D-02
 IDIUse=2 WtCom= 0.00D+00 WtEn= 1.00D+00
 EnCoef did     5 forward-backward iterations
 Coeff-En:   0.694D-01 0.293D+00 0.638D+00
 Coeff:      0.694D-01 0.293D+00 0.638D+00
 Gap=     0.144 Goal=   None    Shift=    0.000
 RMSDP=7.88D-03 MaxDP=1.89D-01 DE=-3.04D-02 OVMax= 3.82D-01

 Cycle   4  Pass 0  IDiag  1:
 E= -283.512124302669     Delta-E=        0.271534085699 Rises=F Damp=F
 DIIS: error= 6.03D-02 at cycle   4 NSaved=   4.
 NSaved= 4 IEnMin= 3 EnMin= -283.783658388368     IErMin= 2 ErrMin= 1.34D-02
 ErrMax= 6.03D-02  0.00D+00 EMaxC= 1.00D-01 BMatC= 4.26D-01 BMatP= 1.92D-02
 IDIUse=2 WtCom= 0.00D+00 WtEn= 1.00D+00
 EnCoef did     1 forward-backward iterations
 Coeff-En:   0.847D-01 0.000D+00 0.671D+00 0.244D+00
 Coeff:      0.847D-01 0.000D+00 0.671D+00 0.244D+00
 Gap=     0.145 Goal=   None    Shift=    0.000
 RMSDP=4.62D-03 MaxDP=1.12D-01 DE= 2.72D-01 OVMax= 2.17D-01

 Cycle   5  Pass 0  IDiag  1:
 E= -283.841040214120     Delta-E=       -0.328915911451 Rises=F Damp=F
 DIIS: error= 1.38D-02 at cycle   5 NSaved=   5.
 NSaved= 5 IEnMin= 5 EnMin= -283.841040214120     IErMin= 2 ErrMin= 1.34D-02
 ErrMax= 1.38D-02  0.00D+00 EMaxC= 1.00D-01 BMatC= 2.60D-02 BMatP= 1.92D-02
 IDIUse=2 WtCom= 0.00D+00 WtEn= 1.00D+00
 Coeff-En:   0.000D+00 0.000D+00 0.282D+00 0.000D+00 0.718D+00
 Coeff:      0.000D+00 0.000D+00 0.282D+00 0.000D+00 0.718D+00
 Gap=     0.125 Goal=   None    Shift=    0.000
 RMSDP=2.05D-03 MaxDP=4.85D-02 DE=-3.29D-01 OVMax= 9.05D-02

 Cycle   6  Pass 0  IDiag  1:
 E= -283.855903087549     Delta-E=       -0.014862873429 Rises=F Damp=F
 DIIS: error= 7.99D-03 at cycle   6 NSaved=   6.
 NSaved= 6 IEnMin= 6 EnMin= -283.855903087549     IErMin= 6 ErrMin= 7.99D-03
 ErrMax= 7.99D-03  0.00D+00 EMaxC= 1.00D-01 BMatC= 7.87D-03 BMatP= 1.92D-02
 IDIUse=3 WtCom= 9.20D-01 WtEn= 7.99D-02
 Coeff-Com: -0.779D-01 0.130D+00 0.188D+00-0.479D-01 0.581D+00 0.227D+00
 Coeff-En:   0.000D+00 0.000D+00 0.000D+00 0.000D+00 0.289D+00 0.711D+00
 Coeff:     -0.717D-01 0.119D+00 0.173D+00-0.441D-01 0.557D+00 0.266D+00
 Gap=     0.131 Goal=   None    Shift=    0.000
 RMSDP=7.86D-04 MaxDP=2.03D-02 DE=-1.49D-02 OVMax= 3.12D-02

 Cycle   7  Pass 0  IDiag  1:
 E= -283.862144822924     Delta-E=       -0.006241735375 Rises=F Damp=F
 DIIS: error= 7.31D-04 at cycle   7 NSaved=   7.
 NSaved= 7 IEnMin= 7 EnMin= -283.862144822924     IErMin= 7 ErrMin= 7.31D-04
 ErrMax= 7.31D-04  0.00D+00 EMaxC= 1.00D-01 BMatC= 8.68D-05 BMatP= 7.87D-03
 IDIUse=3 WtCom= 9.93D-01 WtEn= 7.31D-03
 Coeff-Com: -0.342D-01 0.556D-01 0.589D-01-0.242D-01 0.242D+00 0.165D+00
 Coeff-Com:  0.538D+00
 Coeff-En:   0.000D+00 0.000D+00 0.000D+00 0.000D+00 0.000D+00 0.000D+00
 Coeff-En:   0.100D+01
 Coeff:     -0.340D-01 0.552D-01 0.584D-01-0.240D-01 0.240D+00 0.163D+00
 Coeff:      0.541D+00
 Gap=     0.130 Goal=   None    Shift=    0.000
 RMSDP=9.97D-05 MaxDP=2.37D-03 DE=-6.24D-03 OVMax= 2.30D-03

 Cycle   8  Pass 0  IDiag  1:
 E= -283.862217415050     Delta-E=       -0.000072592126 Rises=F Damp=F
 DIIS: error= 1.78D-04 at cycle   8 NSaved=   8.
 NSaved= 8 IEnMin= 8 EnMin= -283.862217415050     IErMin= 8 ErrMin= 1.78D-04
 ErrMax= 1.78D-04  0.00D+00 EMaxC= 1.00D-01 BMatC= 5.26D-06 BMatP= 8.68D-05
 IDIUse=3 WtCom= 9.98D-01 WtEn= 1.78D-03
 Coeff-Com:  0.846D-03-0.278D-02-0.371D-02-0.958D-03 0.182D-01 0.531D-01
 Coeff-Com:  0.276D+00 0.659D+00
 Coeff-En:   0.000D+00 0.000D+00 0.000D+00 0.000D+00 0.000D+00 0.000D+00
 Coeff-En:   0.000D+00 0.100D+01
 Coeff:      0.845D-03-0.278D-02-0.371D-02-0.956D-03 0.182D-01 0.530D-01
 Coeff:      0.276D+00 0.660D+00
 Gap=     0.130 Goal=   None    Shift=    0.000
 RMSDP=2.11D-05 MaxDP=5.67D-04 DE=-7.26D-05 OVMax= 5.41D-04

 Cycle   9  Pass 0  IDiag  1:
 E= -283.862222128887     Delta-E=       -0.000004713837 Rises=F Damp=F
 DIIS: error= 1.88D-05 at cycle   9 NSaved=   9.
 NSaved= 9 IEnMin= 9 EnMin= -283.862222128887     IErMin= 9 ErrMin= 1.88D-05
 ErrMax= 1.88D-05  0.00D+00 EMaxC= 1.00D-01 BMatC= 4.19D-08 BMatP= 5.26D-06
 IDIUse=1 WtCom= 1.00D+00 WtEn= 0.00D+00
 Coeff-Com:  0.503D-03-0.124D-02-0.183D-02-0.175D-03 0.491D-02 0.179D-01
 Coeff-Com:  0.951D-01 0.240D+00 0.645D+00
 Coeff:      0.503D-03-0.124D-02-0.183D-02-0.175D-03 0.491D-02 0.179D-01
 Coeff:      0.951D-01 0.240D+00 0.645D+00
 Gap=     0.130 Goal=   None    Shift=    0.000
 RMSDP=3.78D-06 MaxDP=6.06D-05 DE=-4.71D-06 OVMax= 7.19D-05

 Initial convergence to 1.0D-05 achieved.  Increase integral accuracy.
 Cycle  10  Pass 1  IDiag  1:
 E= -283.862209694456     Delta-E=        0.000012434431 Rises=F Damp=F
 DIIS: error= 1.05D-05 at cycle   1 NSaved=   1.
 NSaved= 1 IEnMin= 1 EnMin= -283.862209694456     IErMin= 1 ErrMin= 1.05D-05
 ErrMax= 1.05D-05  0.00D+00 EMaxC= 1.00D-01 BMatC= 1.74D-08 BMatP= 1.74D-08
 IDIUse=1 WtCom= 1.00D+00 WtEn= 0.00D+00
 Coeff-Com:  0.100D+01
 Coeff:      0.100D+01
 Gap=     0.130 Goal=   None    Shift=    0.000
 RMSDP=3.78D-06 MaxDP=6.06D-05 DE= 1.24D-05 OVMax= 6.76D-05

 Cycle  11  Pass 1  IDiag  1:
 E= -283.862209697597     Delta-E=       -0.000000003141 Rises=F Damp=F
 DIIS: error= 1.56D-05 at cycle   2 NSaved=   2.
 NSaved= 2 IEnMin= 2 EnMin= -283.862209697597     IErMin= 1 ErrMin= 1.05D-05
 ErrMax= 1.56D-05  0.00D+00 EMaxC= 1.00D-01 BMatC= 2.67D-08 BMatP= 1.74D-08
 IDIUse=1 WtCom= 1.00D+00 WtEn= 0.00D+00
 Coeff-Com:  0.566D+00 0.434D+00
 Coeff:      0.566D+00 0.434D+00
 Gap=     0.130 Goal=   None    Shift=    0.000
 RMSDP=2.14D-06 MaxDP=5.08D-05 DE=-3.14D-09 OVMax= 8.84D-05

 Cycle  12  Pass 1  IDiag  1:
 E= -283.862209711717     Delta-E=       -0.000000014120 Rises=F Damp=F
 DIIS: error= 1.06D-05 at cycle   3 NSaved=   3.
 NSaved= 3 IEnMin= 3 EnMin= -283.862209711717     IErMin= 1 ErrMin= 1.05D-05
 ErrMax= 1.06D-05  0.00D+00 EMaxC= 1.00D-01 BMatC= 9.54D-09 BMatP= 1.74D-08
 IDIUse=1 WtCom= 1.00D+00 WtEn= 0.00D+00
 Coeff-Com:  0.207D+00 0.343D+00 0.450D+00
 Coeff:      0.207D+00 0.343D+00 0.450D+00
 Gap=     0.130 Goal=   None    Shift=    0.000
 RMSDP=1.26D-06 MaxDP=3.35D-05 DE=-1.41D-08 OVMax= 6.40D-05

 Cycle  13  Pass 1  IDiag  1:
 E= -283.862209716967     Delta-E=       -0.000000005250 Rises=F Damp=F
 DIIS: error= 4.03D-06 at cycle   4 NSaved=   4.
 NSaved= 4 IEnMin= 4 EnMin= -283.862209716967     IErMin= 4 ErrMin= 4.03D-06
 ErrMax= 4.03D-06  0.00D+00 EMaxC= 1.00D-01 BMatC= 3.04D-09 BMatP= 9.54D-09
 IDIUse=1 WtCom= 1.00D+00 WtEn= 0.00D+00
 Coeff-Com:  0.146D-01 0.166D+00 0.384D+00 0.436D+00
 Coeff:      0.146D-01 0.166D+00 0.384D+00 0.436D+00
 Gap=     0.130 Goal=   None    Shift=    0.000
 RMSDP=5.59D-07 MaxDP=1.50D-05 DE=-5.25D-09 OVMax= 2.17D-05

 Cycle  14  Pass 1  IDiag  1:
 E= -283.862209719328     Delta-E=       -0.000000002361 Rises=F Damp=F
 DIIS: error= 9.83D-07 at cycle   5 NSaved=   5.
 NSaved= 5 IEnMin= 5 EnMin= -283.862209719328     IErMin= 5 ErrMin= 9.83D-07
 ErrMax= 9.83D-07  0.00D+00 EMaxC= 1.00D-01 BMatC= 1.61D-10 BMatP= 3.04D-09
 IDIUse=1 WtCom= 1.00D+00 WtEn= 0.00D+00
 Coeff-Com: -0.289D-02 0.903D-01 0.231D+00 0.293D+00 0.388D+00
 Coeff:     -0.289D-02 0.903D-01 0.231D+00 0.293D+00 0.388D+00
 Gap=     0.130 Goal=   None    Shift=    0.000
 RMSDP=1.14D-07 MaxDP=3.63D-06 DE=-2.36D-09 OVMax= 4.26D-06

 Cycle  15  Pass 1  IDiag  1:
 E= -283.862209719468     Delta-E=       -0.000000000140 Rises=F Damp=F
 DIIS: error= 1.92D-07 at cycle   6 NSaved=   6.
 NSaved= 6 IEnMin= 6 EnMin= -283.862209719468     IErMin= 6 ErrMin= 1.92D-07
 ErrMax= 1.92D-07  0.00D+00 EMaxC= 1.00D-01 BMatC= 3.76D-12 BMatP= 1.61D-10
 IDIUse=1 WtCom= 1.00D+00 WtEn= 0.00D+00
 Coeff-Com: -0.137D-02 0.412D-01 0.105D+00 0.133D+00 0.209D+00 0.513D+00
 Coeff:     -0.137D-02 0.412D-01 0.105D+00 0.133D+00 0.209D+00 0.513D+00
 Gap=     0.130 Goal=   None    Shift=    0.000
 RMSDP=2.40D-08 MaxDP=4.54D-07 DE=-1.40D-10 OVMax= 6.24D-07

 Cycle  16  Pass 1  IDiag  1:
 E= -283.862209719472     Delta-E=       -0.000000000004 Rises=F Damp=F
 DIIS: error= 8.08D-08 at cycle   7 NSaved=   7.
 NSaved= 7 IEnMin= 7 EnMin= -283.862209719472     IErMin= 7 ErrMin= 8.08D-08
 ErrMax= 8.08D-08  0.00D+00 EMaxC= 1.00D-01 BMatC= 5.37D-13 BMatP= 3.76D-12
 IDIUse=1 WtCom= 1.00D+00 WtEn= 0.00D+00
 Coeff-Com: -0.549D-03 0.111D-01 0.279D-01 0.353D-01 0.687D-01 0.304D+00
 Coeff-Com:  0.554D+00
 Coeff:     -0.549D-03 0.111D-01 0.279D-01 0.353D-01 0.687D-01 0.304D+00
 Coeff:      0.554D+00
 Gap=     0.130 Goal=   None    Shift=    0.000
 RMSDP=7.31D-09 MaxDP=1.66D-07 DE=-3.58D-12 OVMax= 1.71D-07

 SCF Done:  E(RPBE-PBE) =  -283.862209719     A.U. after   16 cycles
            NFock= 16  Conv=0.73D-08     -V/T= 2.0087
 KE= 2.814265671846D+02 PE=-1.019305787126D+03 EE= 2.772262903968D+02
 Leave Link  502 at Fri Sep 11 13:23:25 2015, MaxMem=    33554432 cpu:        14.6
 (Enter /usr/local/research/Gaussian09/g09-revD.01/g09/l508.exe)
 QCSCF skips out because SCF is already converged.
 Leave Link  508 at Fri Sep 11 13:23:25 2015, MaxMem=    33554432 cpu:         0.0
 (Enter /usr/local/research/Gaussian09/g09-revD.01/g09/l601.exe)
 Copying SCF densities to generalized density rwf, IOpCl= 0 IROHF=0.

 **********************************************************************

            Population analysis using the SCF density.

 **********************************************************************

 Orbital symmetries:
       Occupied  (A') (A') (A') (A') (A') (A') (A') (A') (A') (A')
                 (A") (A') (A') (A") (A') (A") (A') (A") (A') (A')
       Virtual   (A") (A') (A') (A") (A') (A') (A") (A') (A') (A')
                 (A') (A') (A") (A') (A') (A") (A') (A') (A') (A")
                 (A') (A") (A') (A') (A') (A") (A') (A') (A") (A')
                 (A") (A') (A") (A') (A') (A") (A") (A') (A") (A')
                 (A") (A") (A') (A') (A') (A') (A") (A') (A') (A")
                 (A') (A') (A') (A") (A') (A') (A') (A") (A") (A')
                 (A') (A") (A') (A") (A') (A") (A") (A') (A") (A')
                 (A") (A') (A') (A') (A')
 The electronic state is 1-A'.
 Alpha  occ. eigenvalues --  -18.79527 -18.73949 -13.96833 -10.01292  -9.94051
 Alpha  occ. eigenvalues --   -0.96817  -0.88876  -0.80645  -0.62634  -0.54249
 Alpha  occ. eigenvalues --   -0.50303  -0.42597  -0.39959  -0.39072  -0.37321
 Alpha  occ. eigenvalues --   -0.33247  -0.32769  -0.26245  -0.22849  -0.17402
 Alpha virt. eigenvalues --   -0.04375   0.01424   0.04877   0.08011   0.08677
 Alpha virt. eigenvalues --    0.13626   0.14742   0.19176   0.24791   0.29419
 Alpha virt. eigenvalues --    0.36018   0.42154   0.44116   0.48298   0.51258
 Alpha virt. eigenvalues --    0.52122   0.55677   0.56427   0.59891   0.60748
 Alpha virt. eigenvalues --    0.62418   0.70848   0.74936   0.77063   0.79668
 Alpha virt. eigenvalues --    0.83882   0.87471   0.92932   0.92963   1.01326
 Alpha virt. eigenvalues --    1.06802   1.08187   1.16221   1.20891   1.30487
 Alpha virt. eigenvalues --    1.32252   1.34431   1.37432   1.47913   1.50433
 Alpha virt. eigenvalues --    1.52530   1.57225   1.61595   1.69251   1.72580
 Alpha virt. eigenvalues --    1.74772   1.74872   1.78084   1.86181   1.87947
 Alpha virt. eigenvalues --    1.96210   2.07699   2.13733   2.14306   2.20525
 Alpha virt. eigenvalues --    2.22571   2.29682   2.38783   2.54951   2.57611
 Alpha virt. eigenvalues --    2.59553   2.61206   2.71319   2.76686   2.77012
 Alpha virt. eigenvalues --    2.82428   2.90001   2.94220   3.02792   3.04408
 Alpha virt. eigenvalues --    3.10978   3.35269   3.46484   3.55833   3.65957
          Condensed to atoms (all electrons):
               1          2          3          4          5          6
     1  N    6.178384   0.313425   0.394586   0.394586  -0.053887  -0.015667
     2  C    0.313425   5.025064  -0.047795  -0.047795   0.188835   0.356066
     3  H    0.394586  -0.047795   0.571145  -0.030490   0.001982   0.009084
     4  H    0.394586  -0.047795  -0.030490   0.571145   0.001982  -0.012027
     5  C   -0.053887   0.188835   0.001982   0.001982   4.869025  -0.025658
     6  H   -0.015667   0.356066   0.009084  -0.012027  -0.025658   0.626047
     7  H   -0.015667   0.356066  -0.012027   0.009084  -0.025658  -0.007761
     8  O    0.004015  -0.079204  -0.000001  -0.000001   0.599145   0.004739
     9  O    0.005287  -0.114834   0.004017   0.004017   0.369576   0.002008
    10  H   -0.001529   0.017220  -0.000086  -0.000086  -0.006914  -0.000505
               7          8          9         10
     1  N   -0.015667   0.004015   0.005287  -0.001529
     2  C    0.356066  -0.079204  -0.114834   0.017220
     3  H   -0.012027  -0.000001   0.004017  -0.000086
     4  H    0.009084  -0.000001   0.004017  -0.000086
     5  C   -0.025658   0.599145   0.369576  -0.006914
     6  H   -0.007761   0.004739   0.002008  -0.000505
     7  H    0.626047   0.004739   0.002008  -0.000505
     8  O    0.004739   7.766907  -0.073003   0.010283
     9  O    0.002008  -0.073003   7.697794   0.294962
    10  H   -0.000505   0.010283   0.294962   0.515224
 Mulliken charges:
               1
     1  N   -0.203533
     2  C    0.032953
     3  H    0.109587
     4  H    0.109587
     5  C    0.081571
     6  H    0.063675
     7  H    0.063675
     8  O   -0.237619
     9  O   -0.191831
    10  H    0.171934
 Sum of Mulliken charges =   0.00000
 Mulliken charges with hydrogens summed into heavy atoms:
               1
     1  N    0.015640
     2  C    0.160304
     5  C    0.081571
     8  O   -0.237619
     9  O   -0.019897
 Electronic spatial extent (au):  <R**2>=            419.1356
 Charge=              0.0000 electrons
 Dipole moment (field-independent basis, Debye):
    X=              0.9891    Y=             -1.3663    Z=              0.0000  Tot=              1.6867
 Quadrupole moment (field-independent basis, Debye-Ang):
   XX=            -27.9582   YY=            -33.5785   ZZ=            -25.9972
   XY=              3.7174   XZ=              0.0000   YZ=              0.0000
 Traceless Quadrupole moment (field-independent basis, Debye-Ang):
   XX=              1.2197   YY=             -4.4005   ZZ=              3.1808
   XY=              3.7174   XZ=              0.0000   YZ=              0.0000
 Octapole moment (field-independent basis, Debye-Ang**2):
  XXX=              9.1027  YYY=              0.6500  ZZZ=              0.0000  XYY=             14.3013
  XXY=              7.6292  XXZ=              0.0000  XZZ=              0.2958  YZZ=             -3.8831
  YYZ=              0.0000  XYZ=              0.0000
 Hexadecapole moment (field-independent basis, Debye-Ang**3):
 XXXX=           -141.9717 YYYY=           -330.8113 ZZZZ=            -33.1222 XXXY=             -0.1400
 XXXZ=              0.0000 YYYX=            -15.5995 YYYZ=              0.0000 ZZZX=              0.0000
 ZZZY=              0.0000 XXYY=            -70.6052 XXZZ=            -30.3104 YYZZ=            -46.1318
 XXYZ=              0.0000 YYXZ=              0.0000 ZZXY=             -4.9315
 N-N= 1.767907198247D+02 E-N=-1.019305781579D+03  KE= 2.814265671846D+02
 Symmetry A'   KE= 2.684309866641D+02
 Symmetry A"   KE= 1.299558052057D+01
 No NMR shielding tensors so no spin-rotation constants.
 Leave Link  601 at Fri Sep 11 13:23:25 2015, MaxMem=    33554432 cpu:         0.3
 (Enter /usr/local/research/Gaussian09/g09-revD.01/g09/l701.exe)
 Compute integral first derivatives.
 ... and contract with generalized density number  0.
   2 Symmetry operations used in ECPInt.
 ECPInt:  NShTT=    1035 NPrTT=    3735 LenC2=    1033 LenP2D=    3192.
 LDataN:  DoStor=T MaxTD1= 5 Len=  102
 Leave Link  701 at Fri Sep 11 13:23:25 2015, MaxMem=    33554432 cpu:         0.3
 (Enter /usr/local/research/Gaussian09/g09-revD.01/g09/l702.exe)
 L702 exits ... SP integral derivatives will be done elsewhere.
 Leave Link  702 at Fri Sep 11 13:23:25 2015, MaxMem=    33554432 cpu:         0.1
 (Enter /usr/local/research/Gaussian09/g09-revD.01/g09/l703.exe)
 Compute integral first derivatives, UseDBF=F ICtDFT=           0.
 Integral derivatives from FoFJK, PRISM(SPDF).
 Calling FoFJK, ICntrl=      2527 FMM=F ISym2X=1 I1Cent= 0 IOpClX= 0 NMat=1 NMatS=1 NMatT=0.
 FoFJK:  IHMeth= 1 ICntrl=    2527 DoSepK=F KAlg= 0 I1Cent=   0 FoldK=F
 IRaf=         0 NMat=   1 IRICut=       1 DoRegI=T DoRafI=F ISym2E= 1.
 FoFCou: FMM=F IPFlag=           0 FMFlag=      100000 FMFlg1=         800
         NFxFlg=           0 DoJE=F BraDBF=F KetDBF=F FulRan=T
         wScrn=  0.000000 ICntrl=    2527 IOpCl=  0 I1Cent=           0 NGrid=           0
         NMat0=    1 NMatS0=      1 NMatT0=    0 NMatD0=    1 NMtDS0=    0 NMtDT0=    0
 Petite list used in FoFCou.
 Leave Link  703 at Fri Sep 11 13:23:30 2015, MaxMem=    33554432 cpu:         4.7
 (Enter /usr/local/research/Gaussian09/g09-revD.01/g09/l716.exe)
 Dipole        = 3.89130144D-01-5.37529667D-01 1.12348756D-16
 ***** Axes restored to original set *****
 -------------------------------------------------------------------
 Center     Atomic                   Forces (Hartrees/Bohr)
 Number     Number              X              Y              Z
 -------------------------------------------------------------------
      1        7          -0.076119261    0.013803585    0.000000000
      2        6           0.037018032   -0.008656827    0.000000000
      3        1           0.039813753   -0.017095863    0.016785641
      4        1           0.039813753   -0.017095863   -0.016785641
      5        6          -0.013450521    0.086419299    0.000000000
      6        1          -0.005970553    0.005144076    0.004183419
      7        1          -0.005970553    0.005144076   -0.004183419
      8        8           0.035239423   -0.043697834    0.000000000
      9        8          -0.044169552   -0.044698994    0.000000000
     10        1          -0.006204522    0.020734347    0.000000000
 -------------------------------------------------------------------
 Cartesian Forces:  Max     0.086419299 RMS     0.030069579
 Leave Link  716 at Fri Sep 11 13:23:30 2015, MaxMem=    33554432 cpu:         0.1
 (Enter /usr/local/research/Gaussian09/g09-revD.01/g09/l103.exe)

 GradGradGradGradGradGradGradGradGradGradGradGradGradGradGradGradGradGrad
 Berny optimization.
 FormGI is forming the generalized inverse of G from B-inverse, IUseBI=4.
 Internal  Forces:  Max     0.055928163 RMS     0.020007027
 Search for a local minimum.
 Step number   1 out of a maximum of   46
 All quantities printed in internal units (Hartrees-Bohrs-Radians)
 RMS Force = .20007D-01 SwitMx=.10000D-02 MixMth= 1
 Mixed Optimization -- RFO/linear search
 Second derivative matrix not updated -- first step.
 ITU=  0
     Eigenvalues ---    0.00477   0.00681   0.01044   0.01296   0.02019
     Eigenvalues ---    0.05451   0.06736   0.09538   0.12995   0.16000
     Eigenvalues ---    0.16000   0.16000   0.22138   0.25000   0.25000
     Eigenvalues ---    0.30187   0.32551   0.32551   0.38379   0.40995
     Eigenvalues ---    0.51261   0.51261   0.55491   0.80222
 RFO step:  Lambda=-4.27584355D-02 EMin= 4.76679032D-03
 Linear search not attempted -- first point.
 Maximum step size (   0.300) exceeded in Quadratic search.
    -- Step size scaled by   0.776
 Iteration  1 RMS(Cart)=  0.08086906 RMS(Int)=  0.00361797
 Iteration  2 RMS(Cart)=  0.00383006 RMS(Int)=  0.00081676
 Iteration  3 RMS(Cart)=  0.00002931 RMS(Int)=  0.00081640
 Iteration  4 RMS(Cart)=  0.00000002 RMS(Int)=  0.00081640
 ITry= 1 IFail=0 DXMaxC= 2.41D-01 DCOld= 1.00D+10 DXMaxT= 3.00D-01 DXLimC= 3.00D+00 Rises=F
 ClnCor:  largest displacement from symmetrization is 5.70D-09 for atom    10.
 Variable       Old X    -DE/DX   Delta X   Delta X   Delta X     New X
                                 (Linear)    (Quad)   (Total)
    R1        2.73817   0.01719   0.00000   0.03127   0.03127   2.76944
    R2        1.85313   0.02957   0.00000   0.04132   0.04132   1.89445
    R3        1.85313   0.02957   0.00000   0.04132   0.04132   1.89445
    R4        2.87591   0.00429   0.00000   0.00966   0.00966   2.88557
    R5        2.09847  -0.00048   0.00000  -0.00101  -0.00101   2.09746
    R6        2.09847  -0.00048   0.00000  -0.00101  -0.00101   2.09746
    R7        2.37796  -0.05593   0.00000  -0.05135  -0.05135   2.32661
    R8        2.70223  -0.05189   0.00000  -0.08894  -0.08894   2.61329
    R9        1.81398   0.01831   0.00000   0.02377   0.02377   1.83775
    A1        1.84840   0.02459   0.00000   0.09081   0.08986   1.93826
    A2        1.84840   0.02459   0.00000   0.09081   0.08986   1.93826
    A3        2.49495  -0.04294   0.00000  -0.16816  -0.16923   2.32572
    A4        1.92683   0.03145   0.00000   0.10170   0.10091   2.02774
    A5        1.91222  -0.00288   0.00000   0.00849   0.00877   1.92099
    A6        1.91222  -0.00288   0.00000   0.00849   0.00877   1.92099
    A7        1.88263  -0.01173   0.00000  -0.03917  -0.04109   1.84153
    A8        1.88263  -0.01173   0.00000  -0.03917  -0.04109   1.84153
    A9        1.94705  -0.00171   0.00000  -0.03939  -0.04102   1.90604
   A10        2.09436   0.01913   0.00000   0.05070   0.05070   2.14506
   A11        2.09436  -0.02674   0.00000  -0.07087  -0.07087   2.02349
   A12        2.09446   0.00761   0.00000   0.02017   0.02017   2.11463
   A13        1.91108  -0.02093   0.00000  -0.08008  -0.08008   1.83100
    D1        1.40287  -0.00110   0.00000  -0.01355  -0.01340   1.38947
    D2       -2.80941   0.00184   0.00000   0.00545   0.00645  -2.80296
    D3       -0.66805  -0.00404   0.00000  -0.03254  -0.03324  -0.70128
    D4       -1.40287   0.00110   0.00000   0.01355   0.01340  -1.38947
    D5        0.66805   0.00404   0.00000   0.03254   0.03324   0.70128
    D6        2.80941  -0.00184   0.00000  -0.00545  -0.00645   2.80296
    D7        3.14159   0.00000   0.00000   0.00000   0.00000   3.14159
    D8        0.00000   0.00000   0.00000   0.00000   0.00000   0.00000
    D9        1.05272  -0.00766   0.00000  -0.04565  -0.04431   1.00841
   D10       -2.08887  -0.00766   0.00000  -0.04565  -0.04431  -2.13319
   D11       -1.05272   0.00766   0.00000   0.04565   0.04431  -1.00841
   D12        2.08887   0.00766   0.00000   0.04565   0.04431   2.13319
   D13        3.14159   0.00000   0.00000   0.00000   0.00000   3.14159
   D14        0.00000   0.00000   0.00000   0.00000   0.00000   0.00000
         Item               Value     Threshold  Converged?
 Maximum Force            0.055928     0.000450     NO 
 RMS     Force            0.020007     0.000300     NO 
 Maximum Displacement     0.241028     0.001800     NO 
 RMS     Displacement     0.082685     0.001200     NO 
 Predicted change in Energy=-2.243137D-02
 Lowest energy point so far.  Saving SCF results.
 GradGradGradGradGradGradGradGradGradGradGradGradGradGradGradGradGradGrad

 Leave Link  103 at Fri Sep 11 13:23:30 2015, MaxMem=    33554432 cpu:         0.0
 (Enter /usr/local/research/Gaussian09/g09-revD.01/g09/l202.exe)
                          Input orientation:                          
 ---------------------------------------------------------------------
 Center     Atomic      Atomic             Coordinates (Angstroms)
 Number     Number       Type             X           Y           Z
 ---------------------------------------------------------------------
      1          7           0        0.198052   -1.891396    0.000000
      2          6           0       -0.740876   -0.766150    0.000000
      3          1           0        0.558332   -2.059829    0.920236
      4          1           0        0.558332   -2.059829   -0.920236
      5          6           0       -0.120361    0.629065    0.000000
      6          1           0       -1.382561   -0.805638   -0.904779
      7          1           0       -1.382561   -0.805638    0.904779
      8          8           0       -0.793074    1.660219    0.000000
      9          8           0        1.261724    0.676372    0.000000
     10          1           0        1.479633    1.624137    0.000000
 ---------------------------------------------------------------------
                    Distance matrix (angstroms):
                    1          2          3          4          5
     1  N    0.000000
     2  C    1.465526   0.000000
     3  H    1.002499   2.051434   0.000000
     4  H    1.002499   2.051434   1.840471   0.000000
     5  C    2.540494   1.526978   2.921919   2.921919   0.000000
     6  H    2.120338   1.109930   2.944612   2.310909   2.114272
     7  H    2.120338   1.109930   2.310909   2.944612   2.114272
     8  O    3.687316   2.426930   4.063483   4.063483   1.231188
     9  O    2.779358   2.468051   2.971261   2.971261   1.382894
    10  H    3.741847   3.262534   3.907331   3.907331   1.884183
                    6          7          8          9         10
     6  H    0.000000
     7  H    1.809558   0.000000
     8  O    2.691946   2.691946   0.000000
     9  O    3.163419   3.163419   2.278190   0.000000
    10  H    3.861941   3.861941   2.272993   0.972493   0.000000
 Stoichiometry    C2H5NO2
 Framework group  CS[SG(C2HNO2),X(H4)]
 Deg. of freedom    15
 Full point group                 CS      NOp   2
 RotChk:  IX=0 Diff= 1.01D-02
 Largest Abelian subgroup         CS      NOp   2
 Largest concise Abelian subgroup CS      NOp   2
                         Standard orientation:                         
 ---------------------------------------------------------------------
 Center     Atomic      Atomic             Coordinates (Angstroms)
 Number     Number       Type             X           Y           Z
 ---------------------------------------------------------------------
      1          7           0       -0.150930   -1.909327    0.000000
      2          6           0       -0.866711   -0.630490    0.000000
      3          1           0        0.172194   -2.141194    0.920236
      4          1           0        0.172194   -2.141194   -0.920236
      5          6           0        0.000000    0.626680    0.000000
      6          1           0       -1.504701   -0.551199   -0.904779
      7          1           0       -1.504701   -0.551199    0.904779
      8          8           0       -0.471432    1.764034    0.000000
      9          8           0        1.367180    0.418799    0.000000
     10          1           0        1.755807    1.310265    0.000000
 ---------------------------------------------------------------------
 Rotational constants (GHZ):      9.6035070      3.9154599      2.8881579
 Leave Link  202 at Fri Sep 11 13:23:30 2015, MaxMem=    33554432 cpu:         0.0
 (Enter /usr/local/research/Gaussian09/g09-revD.01/g09/l301.exe)
 Standard basis: def2SVP (5D, 7F)
 Ernie: Thresh=  0.10000D-02 Tol=  0.10000D-05 Strict=F.
 There are    69 symmetry adapted cartesian basis functions of A'  symmetry.
 There are    31 symmetry adapted cartesian basis functions of A"  symmetry.
 There are    64 symmetry adapted basis functions of A'  symmetry.
 There are    31 symmetry adapted basis functions of A"  symmetry.
    95 basis functions,   160 primitive gaussians,   100 cartesian basis functions
    20 alpha electrons       20 beta electrons
       nuclear repulsion energy       177.1495085063 Hartrees.
 IExCor= 1009 DFT=T Ex=PBE Corr=PBE ExCW=0 ScaHFX=  0.000000
 ScaDFX=  1.000000  1.000000  1.000000  1.000000 ScalE2=  1.000000  1.000000
 IRadAn=      0 IRanWt=     -1 IRanGd=            0 ICorTp=0 IEmpDi=  4
 NAtoms=   10 NActive=   10 NUniq=    8 SFac= 1.56D+00 NAtFMM=   60 NAOKFM=F Big=F
 Integral buffers will be    131072 words long.
 Raffenetti 2 integral format.
 Two-electron integral symmetry is turned on.
 Leave Link  301 at Fri Sep 11 13:23:30 2015, MaxMem=    33554432 cpu:         0.1
 (Enter /usr/local/research/Gaussian09/g09-revD.01/g09/l302.exe)
 NPDir=0 NMtPBC=     1 NCelOv=     1 NCel=       1 NClECP=     1 NCelD=      1
         NCelK=      1 NCelE2=     1 NClLst=     1 CellRange=     0.0.
 One-electron integrals computed using PRISM.
 One-electron integral symmetry used in STVInt
   2 Symmetry operations used in ECPInt.
 ECPInt:  NShTT=    1035 NPrTT=    3735 LenC2=    1033 LenP2D=    3182.
 LDataN:  DoStor=T MaxTD1= 4 Len=   56
 NBasis=    95 RedAO= T EigKep=  3.59D-03  NBF=    64    31
 NBsUse=    95 1.00D-06 EigRej= -1.00D+00 NBFU=    64    31
 Precomputing XC quadrature grid using
 IXCGrd= 4 IRadAn=           0 IRanWt=          -1 IRanGd=           0 AccXCQ= 0.00D+00.
 Generated NRdTot=       0 NPtTot=           0 NUsed=           0 NTot=          32
 NSgBfM=   100   100   100   100   100 MxSgAt=    10 MxSgA2=    10.
 Leave Link  302 at Fri Sep 11 13:23:31 2015, MaxMem=    33554432 cpu:         0.5
 (Enter /usr/local/research/Gaussian09/g09-revD.01/g09/l303.exe)
 DipDrv:  MaxL=1.
 Leave Link  303 at Fri Sep 11 13:23:31 2015, MaxMem=    33554432 cpu:         0.1
 (Enter /usr/local/research/Gaussian09/g09-revD.01/g09/l401.exe)
 Initial guess from the checkpoint file:  "4-tct.chk"
 B after Tr=     0.000000    0.000000    0.000000
         Rot=    0.999999    0.000000    0.000000   -0.001407 Ang=  -0.16 deg.
 Guess basis will be translated and rotated to current coordinates.
 JPrj=2 DoOrth=T DoCkMO=T.
 Initial guess orbital symmetries:
       Occupied  (A') (A') (A') (A') (A') (A') (A') (A') (A') (A')
                 (A") (A') (A') (A") (A') (A") (A') (A") (A') (A')
       Virtual   (A') (A') (A') (A') (A') (A') (A') (A') (A') (A')
                 (A') (A') (A') (A') (A') (A') (A') (A') (A') (A')
                 (A') (A') (A') (A') (A') (A') (A') (A') (A') (A')
                 (A') (A') (A') (A') (A') (A') (A') (A') (A') (A')
                 (A') (A') (A') (A') (A') (A') (A') (A') (A") (A")
                 (A") (A") (A") (A") (A") (A") (A") (A") (A") (A")
                 (A") (A") (A") (A") (A") (A") (A") (A") (A") (A")
                 (A") (A") (A") (A") (A")
 The electronic state of the initial guess is 1-A'.
 Generating alternative initial guess.
 ExpMin= 1.22D-01 ExpMax= 2.27D+03 ExpMxC= 3.41D+02 IAcc=1 IRadAn=         1 AccDes= 0.00D+00
 Harris functional with IExCor= 1009 and IRadAn=       1 diagonalized for initial guess.
 HarFok:  IExCor= 1009 AccDes= 0.00D+00 IRadAn=         1 IDoV= 1 UseB2=F ITyADJ=14
 ICtDFT=  3500011 ScaDFX=  1.000000  1.000000  1.000000  1.000000
 FoFCou: FMM=F IPFlag=           0 FMFlag=      100000 FMFlg1=           0
         NFxFlg=           0 DoJE=T BraDBF=F KetDBF=T FulRan=T
         wScrn=  0.000000 ICntrl=     500 IOpCl=  0 I1Cent=   200000004 NGrid=           0
         NMat0=    1 NMatS0=      1 NMatT0=    0 NMatD0=    1 NMtDS0=    0 NMtDT0=    0
 Petite list used in FoFCou.
 Harris En= -283.962544827053    
 Leave Link  401 at Fri Sep 11 13:23:32 2015, MaxMem=    33554432 cpu:         0.8
 (Enter /usr/local/research/Gaussian09/g09-revD.01/g09/l502.exe)
 Closed shell SCF:
 Using DIIS extrapolation, IDIIS=  1040.
 Integral symmetry usage will be decided dynamically.
 Keep J ints in memory in symmetry-blocked form, NReq=15735152.
 IVT=       37446 IEndB=       37446 NGot=    33554432 MDV=    28218456
 LenX=    28218456 LenY=    28208015
 Requested convergence on RMS density matrix=1.00D-08 within  64 cycles.
 Requested convergence on MAX density matrix=1.00D-06.
 Requested convergence on             energy=1.00D-06.
 No special actions if energy rises.
 FoFCou: FMM=F IPFlag=           0 FMFlag=           0 FMFlg1=           0
         NFxFlg=           0 DoJE=F BraDBF=F KetDBF=F FulRan=T
         wScrn=  0.000000 ICntrl=     600 IOpCl=  0 I1Cent=           0 NGrid=           0
         NMat0=    1 NMatS0=   4560 NMatT0=    0 NMatD0=    1 NMtDS0=    0 NMtDT0=    0
 Petite list used in FoFCou.
 Integral accuracy reduced to 1.0D-05 until final iterations.

 Cycle   1  Pass 0  IDiag  1:
 E= -283.880325509383    
 DIIS: error= 5.25D-03 at cycle   1 NSaved=   1.
 NSaved= 1 IEnMin= 1 EnMin= -283.880325509383     IErMin= 1 ErrMin= 5.25D-03
 ErrMax= 5.25D-03  0.00D+00 EMaxC= 1.00D-01 BMatC= 4.47D-03 BMatP= 4.47D-03
 IDIUse=3 WtCom= 9.47D-01 WtEn= 5.25D-02
 Coeff-Com:  0.100D+01
 Coeff-En:   0.100D+01
 Coeff:      0.100D+01
 Gap=     0.563 Goal=   None    Shift=    0.000
 GapD=    0.563 DampG=2.000 DampE=1.000 DampFc=2.0000 IDamp=-1.
 RMSDP=1.55D-03 MaxDP=1.89D-02              OVMax= 2.93D-02

 Cycle   2  Pass 0  IDiag  1:
 E= -283.884766258955     Delta-E=       -0.004440749573 Rises=F Damp=F
 DIIS: error= 3.14D-03 at cycle   2 NSaved=   2.
 NSaved= 2 IEnMin= 2 EnMin= -283.884766258955     IErMin= 2 ErrMin= 3.14D-03
 ErrMax= 3.14D-03  0.00D+00 EMaxC= 1.00D-01 BMatC= 1.15D-03 BMatP= 4.47D-03
 IDIUse=3 WtCom= 9.69D-01 WtEn= 3.14D-02
 Coeff-Com:  0.250D+00 0.750D+00
 Coeff-En:   0.000D+00 0.100D+01
 Coeff:      0.242D+00 0.758D+00
 Gap=     0.151 Goal=   None    Shift=    0.000
 RMSDP=9.24D-04 MaxDP=2.15D-02 DE=-4.44D-03 OVMax= 4.15D-02

 Cycle   3  Pass 0  IDiag  1:
 E= -283.882213327956     Delta-E=        0.002552930999 Rises=F Damp=F
 DIIS: error= 6.88D-03 at cycle   3 NSaved=   3.
 NSaved= 3 IEnMin= 2 EnMin= -283.884766258955     IErMin= 2 ErrMin= 3.14D-03
 ErrMax= 6.88D-03  0.00D+00 EMaxC= 1.00D-01 BMatC= 4.32D-03 BMatP= 1.15D-03
 IDIUse=3 WtCom= 1.08D-01 WtEn= 8.92D-01
 Coeff-Com:  0.455D-01 0.640D+00 0.314D+00
 Coeff-En:   0.000D+00 0.717D+00 0.283D+00
 Coeff:      0.490D-02 0.709D+00 0.286D+00
 Gap=     0.148 Goal=   None    Shift=    0.000
 RMSDP=5.00D-04 MaxDP=1.28D-02 DE= 2.55D-03 OVMax= 2.48D-02

 Cycle   4  Pass 0  IDiag  1:
 E= -283.885580952929     Delta-E=       -0.003367624972 Rises=F Damp=F
 DIIS: error= 8.85D-04 at cycle   4 NSaved=   4.
 NSaved= 4 IEnMin= 4 EnMin= -283.885580952929     IErMin= 4 ErrMin= 8.85D-04
 ErrMax= 8.85D-04  0.00D+00 EMaxC= 1.00D-01 BMatC= 1.68D-04 BMatP= 1.15D-03
 IDIUse=3 WtCom= 9.91D-01 WtEn= 8.85D-03
 Coeff-Com:  0.664D-02 0.393D+00 0.128D+00 0.472D+00
 Coeff-En:   0.000D+00 0.164D+00 0.000D+00 0.836D+00
 Coeff:      0.659D-02 0.391D+00 0.127D+00 0.475D+00
 Gap=     0.144 Goal=   None    Shift=    0.000
 RMSDP=1.60D-04 MaxDP=3.72D-03 DE=-3.37D-03 OVMax= 3.32D-03

 Cycle   5  Pass 0  IDiag  1:
 E= -283.885730071201     Delta-E=       -0.000149118273 Rises=F Damp=F
 DIIS: error= 3.04D-04 at cycle   5 NSaved=   5.
 NSaved= 5 IEnMin= 5 EnMin= -283.885730071201     IErMin= 5 ErrMin= 3.04D-04
 ErrMax= 3.04D-04  0.00D+00 EMaxC= 1.00D-01 BMatC= 7.99D-06 BMatP= 1.68D-04
 IDIUse=3 WtCom= 9.97D-01 WtEn= 3.04D-03
 Coeff-Com:  0.142D-02 0.198D+00 0.576D-01 0.295D+00 0.448D+00
 Coeff-En:   0.000D+00 0.000D+00 0.000D+00 0.000D+00 0.100D+01
 Coeff:      0.141D-02 0.197D+00 0.574D-01 0.294D+00 0.450D+00
 Gap=     0.145 Goal=   None    Shift=    0.000
 RMSDP=2.55D-05 MaxDP=4.55D-04 DE=-1.49D-04 OVMax= 7.10D-04

 Cycle   6  Pass 0  IDiag  1:
 E= -283.885736007127     Delta-E=       -0.000005935926 Rises=F Damp=F
 DIIS: error= 7.60D-05 at cycle   6 NSaved=   6.
 NSaved= 6 IEnMin= 6 EnMin= -283.885736007127     IErMin= 6 ErrMin= 7.60D-05
 ErrMax= 7.60D-05  0.00D+00 EMaxC= 1.00D-01 BMatC= 4.91D-07 BMatP= 7.99D-06
 IDIUse=1 WtCom= 1.00D+00 WtEn= 0.00D+00
 Coeff-Com:  0.348D-03 0.685D-01 0.178D-01 0.119D+00 0.255D+00 0.539D+00
 Coeff:      0.348D-03 0.685D-01 0.178D-01 0.119D+00 0.255D+00 0.539D+00
 Gap=     0.145 Goal=   None    Shift=    0.000
 RMSDP=9.74D-06 MaxDP=2.04D-04 DE=-5.94D-06 OVMax= 2.41D-04

 Initial convergence to 1.0D-05 achieved.  Increase integral accuracy.
 Cycle   7  Pass 1  IDiag  1:
 E= -283.885726347522     Delta-E=        0.000009659605 Rises=F Damp=F
 DIIS: error= 1.42D-05 at cycle   1 NSaved=   1.
 NSaved= 1 IEnMin= 1 EnMin= -283.885726347522     IErMin= 1 ErrMin= 1.42D-05
 ErrMax= 1.42D-05  0.00D+00 EMaxC= 1.00D-01 BMatC= 4.37D-08 BMatP= 4.37D-08
 IDIUse=1 WtCom= 1.00D+00 WtEn= 0.00D+00
 Coeff-Com:  0.100D+01
 Coeff:      0.100D+01
 Gap=     0.145 Goal=   None    Shift=    0.000
 RMSDP=9.74D-06 MaxDP=2.04D-04 DE= 9.66D-06 OVMax= 1.52D-04

 Cycle   8  Pass 1  IDiag  1:
 E= -283.885726291138     Delta-E=        0.000000056384 Rises=F Damp=F
 DIIS: error= 2.58D-05 at cycle   2 NSaved=   2.
 NSaved= 2 IEnMin= 1 EnMin= -283.885726347522     IErMin= 1 ErrMin= 1.42D-05
 ErrMax= 2.58D-05  0.00D+00 EMaxC= 1.00D-01 BMatC= 1.25D-07 BMatP= 4.37D-08
 IDIUse=1 WtCom= 1.00D+00 WtEn= 0.00D+00
 Coeff-Com:  0.638D+00 0.362D+00
 Coeff:      0.638D+00 0.362D+00
 Gap=     0.145 Goal=   None    Shift=    0.000
 RMSDP=3.48D-06 MaxDP=5.76D-05 DE= 5.64D-08 OVMax= 9.44D-05

 Cycle   9  Pass 1  IDiag  1:
 E= -283.885726392513     Delta-E=       -0.000000101375 Rises=F Damp=F
 DIIS: error= 5.41D-06 at cycle   3 NSaved=   3.
 NSaved= 3 IEnMin= 3 EnMin= -283.885726392513     IErMin= 3 ErrMin= 5.41D-06
 ErrMax= 5.41D-06  0.00D+00 EMaxC= 1.00D-01 BMatC= 2.95D-09 BMatP= 4.37D-08
 IDIUse=1 WtCom= 1.00D+00 WtEn= 0.00D+00
 Coeff-Com:  0.198D+00 0.164D+00 0.638D+00
 Coeff:      0.198D+00 0.164D+00 0.638D+00
 Gap=     0.145 Goal=   None    Shift=    0.000
 RMSDP=8.27D-07 MaxDP=1.95D-05 DE=-1.01D-07 OVMax= 2.52D-05

 Cycle  10  Pass 1  IDiag  1:
 E= -283.885726393005     Delta-E=       -0.000000000492 Rises=F Damp=F
 DIIS: error= 4.18D-06 at cycle   4 NSaved=   4.
 NSaved= 4 IEnMin= 4 EnMin= -283.885726393005     IErMin= 4 ErrMin= 4.18D-06
 ErrMax= 4.18D-06  0.00D+00 EMaxC= 1.00D-01 BMatC= 2.18D-09 BMatP= 2.95D-09
 IDIUse=1 WtCom= 1.00D+00 WtEn= 0.00D+00
 Coeff-Com:  0.527D-01 0.699D-01 0.481D+00 0.396D+00
 Coeff:      0.527D-01 0.699D-01 0.481D+00 0.396D+00
 Gap=     0.145 Goal=   None    Shift=    0.000
 RMSDP=4.93D-07 MaxDP=1.35D-05 DE=-4.92D-10 OVMax= 2.37D-05

 Cycle  11  Pass 1  IDiag  1:
 E= -283.885726394490     Delta-E=       -0.000000001484 Rises=F Damp=F
 DIIS: error= 2.02D-06 at cycle   5 NSaved=   5.
 NSaved= 5 IEnMin= 5 EnMin= -283.885726394490     IErMin= 5 ErrMin= 2.02D-06
 ErrMax= 2.02D-06  0.00D+00 EMaxC= 1.00D-01 BMatC= 3.48D-10 BMatP= 2.18D-09
 IDIUse=1 WtCom= 1.00D+00 WtEn= 0.00D+00
 Coeff-Com:  0.776D-02 0.275D-01 0.267D+00 0.303D+00 0.395D+00
 Coeff:      0.776D-02 0.275D-01 0.267D+00 0.303D+00 0.395D+00
 Gap=     0.145 Goal=   None    Shift=    0.000
 RMSDP=1.86D-07 MaxDP=3.84D-06 DE=-1.48D-09 OVMax= 8.65D-06

 Cycle  12  Pass 1  IDiag  1:
 E= -283.885726394749     Delta-E=       -0.000000000259 Rises=F Damp=F
 DIIS: error= 4.01D-07 at cycle   6 NSaved=   6.
 NSaved= 6 IEnMin= 6 EnMin= -283.885726394749     IErMin= 6 ErrMin= 4.01D-07
 ErrMax= 4.01D-07  0.00D+00 EMaxC= 1.00D-01 BMatC= 2.37D-11 BMatP= 3.48D-10
 IDIUse=1 WtCom= 1.00D+00 WtEn= 0.00D+00
 Coeff-Com: -0.152D-02 0.936D-02 0.111D+00 0.147D+00 0.260D+00 0.474D+00
 Coeff:     -0.152D-02 0.936D-02 0.111D+00 0.147D+00 0.260D+00 0.474D+00
 Gap=     0.145 Goal=   None    Shift=    0.000
 RMSDP=6.26D-08 MaxDP=8.39D-07 DE=-2.59D-10 OVMax= 1.32D-06

 Cycle  13  Pass 1  IDiag  1:
 E= -283.885726394771     Delta-E=       -0.000000000023 Rises=F Damp=F
 DIIS: error= 5.52D-08 at cycle   7 NSaved=   7.
 NSaved= 7 IEnMin= 7 EnMin= -283.885726394771     IErMin= 7 ErrMin= 5.52D-08
 ErrMax= 5.52D-08  0.00D+00 EMaxC= 1.00D-01 BMatC= 3.80D-13 BMatP= 2.37D-11
 IDIUse=1 WtCom= 1.00D+00 WtEn= 0.00D+00
 Coeff-Com: -0.934D-03 0.441D-02 0.522D-01 0.707D-01 0.127D+00 0.249D+00
 Coeff-Com:  0.498D+00
 Coeff:     -0.934D-03 0.441D-02 0.522D-01 0.707D-01 0.127D+00 0.249D+00
 Coeff:      0.498D+00
 Gap=     0.145 Goal=   None    Shift=    0.000
 RMSDP=7.31D-09 MaxDP=1.95D-07 DE=-2.25D-11 OVMax= 2.03D-07

 SCF Done:  E(RPBE-PBE) =  -283.885726395     A.U. after   13 cycles
            NFock= 13  Conv=0.73D-08     -V/T= 2.0087
 KE= 2.814402975572D+02 PE=-1.020025056131D+03 EE= 2.775495236731D+02
 Leave Link  502 at Fri Sep 11 13:23:45 2015, MaxMem=    33554432 cpu:        13.2
 (Enter /usr/local/research/Gaussian09/g09-revD.01/g09/l508.exe)
 QCSCF skips out because SCF is already converged.
 Leave Link  508 at Fri Sep 11 13:23:45 2015, MaxMem=    33554432 cpu:         0.0
 (Enter /usr/local/research/Gaussian09/g09-revD.01/g09/l701.exe)
 Compute integral first derivatives.
 ... and contract with generalized density number  0.
   2 Symmetry operations used in ECPInt.
 ECPInt:  NShTT=    1035 NPrTT=    3735 LenC2=    1033 LenP2D=    3182.
 LDataN:  DoStor=T MaxTD1= 5 Len=  102
 Leave Link  701 at Fri Sep 11 13:23:45 2015, MaxMem=    33554432 cpu:         0.3
 (Enter /usr/local/research/Gaussian09/g09-revD.01/g09/l702.exe)
 L702 exits ... SP integral derivatives will be done elsewhere.
 Leave Link  702 at Fri Sep 11 13:23:45 2015, MaxMem=    33554432 cpu:         0.0
 (Enter /usr/local/research/Gaussian09/g09-revD.01/g09/l703.exe)
 Compute integral first derivatives, UseDBF=F ICtDFT=           0.
 Integral derivatives from FoFJK, PRISM(SPDF).
 Calling FoFJK, ICntrl=      2527 FMM=F ISym2X=1 I1Cent= 0 IOpClX= 0 NMat=1 NMatS=1 NMatT=0.
 FoFJK:  IHMeth= 1 ICntrl=    2527 DoSepK=F KAlg= 0 I1Cent=   0 FoldK=F
 IRaf=         0 NMat=   1 IRICut=       1 DoRegI=T DoRafI=F ISym2E= 1.
 FoFCou: FMM=F IPFlag=           0 FMFlag=      100000 FMFlg1=         800
         NFxFlg=           0 DoJE=F BraDBF=F KetDBF=F FulRan=T
         wScrn=  0.000000 ICntrl=    2527 IOpCl=  0 I1Cent=           0 NGrid=           0
         NMat0=    1 NMatS0=      1 NMatT0=    0 NMatD0=    1 NMtDS0=    0 NMtDT0=    0
 Petite list used in FoFCou.
 Leave Link  703 at Fri Sep 11 13:23:50 2015, MaxMem=    33554432 cpu:         4.7
 (Enter /usr/local/research/Gaussian09/g09-revD.01/g09/l716.exe)
 Dipole        = 4.56429613D-01-5.55593229D-01-2.19440826D-16
 ***** Axes restored to original set *****
 -------------------------------------------------------------------
 Center     Atomic                   Forces (Hartrees/Bohr)
 Number     Number              X              Y              Z
 -------------------------------------------------------------------
      1        7          -0.055195997    0.026043585    0.000000000
      2        6           0.027289583   -0.014642801    0.000000000
      3        1           0.022424880   -0.009684151   -0.001005357
      4        1           0.022424880   -0.009684151    0.001005357
      5        6           0.000625216    0.032198757    0.000000000
      6        1          -0.004571476    0.000911342    0.002571409
      7        1          -0.004571476    0.000911342   -0.002571409
      8        8           0.010999375   -0.017438572    0.000000000
      9        8          -0.019103436   -0.017338922    0.000000000
     10        1          -0.000321550    0.008723570    0.000000000
 -------------------------------------------------------------------
 Cartesian Forces:  Max     0.055195997 RMS     0.016472243
 Leave Link  716 at Fri Sep 11 13:23:50 2015, MaxMem=    33554432 cpu:         0.1
 (Enter /usr/local/research/Gaussian09/g09-revD.01/g09/l103.exe)

 GradGradGradGradGradGradGradGradGradGradGradGradGradGradGradGradGradGrad
 Berny optimization.
 Using GEDIIS/GDIIS optimizer.
 FormGI is forming the generalized inverse of G from B-inverse, IUseBI=4.
 Internal  Forces:  Max     0.026958334 RMS     0.008564890
 Search for a local minimum.
 Step number   2 out of a maximum of   46
 All quantities printed in internal units (Hartrees-Bohrs-Radians)
 RMS Force = .85649D-02 SwitMx=.10000D-02 MixMth= 1
 Mixed Optimization -- RFO/linear search
 Update second derivatives using D2CorX and points    1    2
 DE= -2.35D-02 DEPred=-2.24D-02 R= 1.05D+00
 TightC=F SS=  1.41D+00  RLast= 3.17D-01 DXNew= 5.0454D-01 9.5200D-01
 Trust test= 1.05D+00 RLast= 3.17D-01 DXMaxT set to 5.05D-01
 ITU=  1  0
 Use linear search instead of GDIIS.
     Eigenvalues ---    0.00477   0.00676   0.01044   0.01296   0.01670
     Eigenvalues ---    0.04726   0.06496   0.10559   0.12570   0.13561
     Eigenvalues ---    0.16000   0.16435   0.23212   0.24639   0.25467
     Eigenvalues ---    0.30166   0.32551   0.32557   0.38237   0.43947
     Eigenvalues ---    0.51261   0.52548   0.55258   0.79153
 RFO step:  Lambda=-9.22465583D-03 EMin= 4.76679032D-03
 Quartic linear search produced a step of  0.69371.
 Iteration  1 RMS(Cart)=  0.05415290 RMS(Int)=  0.01322482
 Iteration  2 RMS(Cart)=  0.01464091 RMS(Int)=  0.00188768
 Iteration  3 RMS(Cart)=  0.00029911 RMS(Int)=  0.00186093
 Iteration  4 RMS(Cart)=  0.00000040 RMS(Int)=  0.00186093
 ITry= 1 IFail=0 DXMaxC= 1.64D-01 DCOld= 1.00D+10 DXMaxT= 5.05D-01 DXLimC= 3.00D+00 Rises=F
 ClnCor:  largest displacement from symmetrization is 5.99D-09 for atom    10.
 Variable       Old X    -DE/DX   Delta X   Delta X   Delta X     New X
                                 (Linear)    (Quad)   (Total)
    R1        2.76944  -0.01175   0.02169  -0.07282  -0.05113   2.71832
    R2        1.89445   0.00876   0.02866  -0.00115   0.02751   1.92196
    R3        1.89445   0.00876   0.02866  -0.00115   0.02751   1.92196
    R4        2.88557   0.00244   0.00670   0.00587   0.01257   2.89814
    R5        2.09746   0.00051  -0.00070   0.00332   0.00262   2.10008
    R6        2.09746   0.00051  -0.00070   0.00332   0.00262   2.10008
    R7        2.32661  -0.02061  -0.03562  -0.00736  -0.04298   2.28363
    R8        2.61329  -0.01971  -0.06170  -0.01427  -0.07596   2.53733
    R9        1.83775   0.00843   0.01649   0.00829   0.02478   1.86252
    A1        1.93826   0.01386   0.06233   0.02381   0.08109   2.01935
    A2        1.93826   0.01386   0.06233   0.02381   0.08109   2.01935
    A3        2.32572  -0.02696  -0.11740  -0.16536  -0.28923   2.03649
    A4        2.02774   0.00686   0.07000  -0.01792   0.05067   2.07841
    A5        1.92099   0.00012   0.00608   0.00690   0.01285   1.93383
    A6        1.92099   0.00012   0.00608   0.00690   0.01285   1.93383
    A7        1.84153  -0.00234  -0.02851   0.01793  -0.01275   1.82879
    A8        1.84153  -0.00234  -0.02851   0.01793  -0.01275   1.82879
    A9        1.90604  -0.00307  -0.02845  -0.03349  -0.06329   1.84274
   A10        2.14506   0.00504   0.03517  -0.00678   0.02839   2.17345
   A11        2.02349  -0.01081  -0.04917  -0.01485  -0.06402   1.95947
   A12        2.11463   0.00578   0.01399   0.02164   0.03563   2.15026
   A13        1.83100  -0.00417  -0.05555   0.02645  -0.02911   1.80190
    D1        1.38947  -0.00268  -0.00929  -0.14491  -0.15299   1.23649
    D2       -2.80296  -0.00085   0.00447  -0.12853  -0.12187  -2.92483
    D3       -0.70128  -0.00451  -0.02306  -0.16129  -0.18410  -0.88539
    D4       -1.38947   0.00268   0.00929   0.14491   0.15299  -1.23649
    D5        0.70128   0.00451   0.02306   0.16129   0.18410   0.88539
    D6        2.80296   0.00085  -0.00447   0.12853   0.12187   2.92483
    D7        3.14159   0.00000   0.00000   0.00000   0.00000   3.14159
    D8        0.00000   0.00000   0.00000   0.00000   0.00000   0.00000
    D9        1.00841  -0.00276  -0.03074  -0.01098  -0.04051   0.96789
   D10       -2.13319  -0.00276  -0.03074  -0.01098  -0.04051  -2.17370
   D11       -1.00841   0.00276   0.03074   0.01098   0.04051  -0.96789
   D12        2.13319   0.00276   0.03074   0.01098   0.04051   2.17370
   D13        3.14159   0.00000   0.00000   0.00000   0.00000   3.14159
   D14        0.00000   0.00000   0.00000   0.00000   0.00000   0.00000
         Item               Value     Threshold  Converged?
 Maximum Force            0.026958     0.000450     NO 
 RMS     Force            0.008565     0.000300     NO 
 Maximum Displacement     0.164386     0.001800     NO 
 RMS     Displacement     0.061171     0.001200     NO 
 Predicted change in Energy=-1.030552D-02
 Lowest energy point so far.  Saving SCF results.
 GradGradGradGradGradGradGradGradGradGradGradGradGradGradGradGradGradGrad

 Leave Link  103 at Fri Sep 11 13:23:50 2015, MaxMem=    33554432 cpu:         0.0
 (Enter /usr/local/research/Gaussian09/g09-revD.01/g09/l202.exe)
                          Input orientation:                          
 ---------------------------------------------------------------------
 Center     Atomic      Atomic             Coordinates (Angstroms)
 Number     Number       Type             X           Y           Z
 ---------------------------------------------------------------------
      1          7           0        0.138130   -1.897051    0.000000
      2          6           0       -0.738433   -0.756510    0.000000
      3          1           0        0.645322   -2.063523    0.865707
      4          1           0        0.645322   -2.063523   -0.865707
      5          6           0       -0.130047    0.651287    0.000000
      6          1           0       -1.410221   -0.775077   -0.885088
      7          1           0       -1.410221   -0.775077    0.885088
      8          8           0       -0.772185    1.675004    0.000000
      9          8           0        1.212400    0.625450    0.000000
     10          1           0        1.456572    1.580332    0.000000
 ---------------------------------------------------------------------
                    Distance matrix (angstroms):
                    1          2          3          4          5
     1  N    0.000000
     2  C    1.438471   0.000000
     3  H    1.017057   2.091054   0.000000
     4  H    1.017057   2.091054   1.731413   0.000000
     5  C    2.562410   1.533632   2.953106   2.953106   0.000000
     6  H    2.107035   1.111316   2.991760   2.426051   2.111100
     7  H    2.107035   1.111316   2.426051   2.991760   2.111100
     8  O    3.686224   2.431748   4.090887   4.090887   1.208444
     9  O    2.741728   2.390725   2.881250   2.881250   1.342696
    10  H    3.718935   3.206068   3.832134   3.832134   1.838609
                    6          7          8          9         10
     6  H    0.000000
     7  H    1.770176   0.000000
     8  O    2.682046   2.682046   0.000000
     9  O    3.102096   3.102096   2.245026   0.000000
    10  H    3.814424   3.814424   2.230767   0.985605   0.000000
 Stoichiometry    C2H5NO2
 Framework group  CS[SG(C2HNO2),X(H4)]
 Deg. of freedom    15
 Full point group                 CS      NOp   2
 RotChk:  IX=0 Diff= 2.12D-02
 Largest Abelian subgroup         CS      NOp   2
 Largest concise Abelian subgroup CS      NOp   2
                         Standard orientation:                         
 ---------------------------------------------------------------------
 Center     Atomic      Atomic             Coordinates (Angstroms)
 Number     Number       Type             X           Y           Z
 ---------------------------------------------------------------------
      1          7           0       -0.167062   -1.906182    0.000000
      2          6           0       -0.837911   -0.633720    0.000000
      3          1           0        0.304631   -2.156106    0.865707
      4          1           0        0.304631   -2.156106   -0.865707
      5          6           0        0.000000    0.650777    0.000000
      6          1           0       -1.503147   -0.538303   -0.885088
      7          1           0       -1.503147   -0.538303    0.885088
      8          8           0       -0.459583    1.768418    0.000000
      9          8           0        1.318701    0.398071    0.000000
     10          1           0        1.720985    1.297840    0.000000
 ---------------------------------------------------------------------
 Rotational constants (GHZ):     10.1404888      3.9224532      2.9297159
 Leave Link  202 at Fri Sep 11 13:23:50 2015, MaxMem=    33554432 cpu:         0.0
 (Enter /usr/local/research/Gaussian09/g09-revD.01/g09/l301.exe)
 Standard basis: def2SVP (5D, 7F)
 Ernie: Thresh=  0.10000D-02 Tol=  0.10000D-05 Strict=F.
 There are    69 symmetry adapted cartesian basis functions of A'  symmetry.
 There are    31 symmetry adapted cartesian basis functions of A"  symmetry.
 There are    64 symmetry adapted basis functions of A'  symmetry.
 There are    31 symmetry adapted basis functions of A"  symmetry.
    95 basis functions,   160 primitive gaussians,   100 cartesian basis functions
    20 alpha electrons       20 beta electrons
       nuclear repulsion energy       178.9443775192 Hartrees.
 IExCor= 1009 DFT=T Ex=PBE Corr=PBE ExCW=0 ScaHFX=  0.000000
 ScaDFX=  1.000000  1.000000  1.000000  1.000000 ScalE2=  1.000000  1.000000
 IRadAn=      0 IRanWt=     -1 IRanGd=            0 ICorTp=0 IEmpDi=  4
 NAtoms=   10 NActive=   10 NUniq=    8 SFac= 1.56D+00 NAtFMM=   60 NAOKFM=F Big=F
 Integral buffers will be    131072 words long.
 Raffenetti 2 integral format.
 Two-electron integral symmetry is turned on.
 Leave Link  301 at Fri Sep 11 13:23:50 2015, MaxMem=    33554432 cpu:         0.1
 (Enter /usr/local/research/Gaussian09/g09-revD.01/g09/l302.exe)
 NPDir=0 NMtPBC=     1 NCelOv=     1 NCel=       1 NClECP=     1 NCelD=      1
         NCelK=      1 NCelE2=     1 NClLst=     1 CellRange=     0.0.
 One-electron integrals computed using PRISM.
 One-electron integral symmetry used in STVInt
   2 Symmetry operations used in ECPInt.
 ECPInt:  NShTT=    1035 NPrTT=    3735 LenC2=    1033 LenP2D=    3189.
 LDataN:  DoStor=T MaxTD1= 4 Len=   56
 NBasis=    95 RedAO= T EigKep=  3.59D-03  NBF=    64    31
 NBsUse=    95 1.00D-06 EigRej= -1.00D+00 NBFU=    64    31
 Precomputing XC quadrature grid using
 IXCGrd= 4 IRadAn=           0 IRanWt=          -1 IRanGd=           0 AccXCQ= 0.00D+00.
 Generated NRdTot=       0 NPtTot=           0 NUsed=           0 NTot=          32
 NSgBfM=   100   100   100   100   100 MxSgAt=    10 MxSgA2=    10.
 Leave Link  302 at Fri Sep 11 13:23:51 2015, MaxMem=    33554432 cpu:         0.5
 (Enter /usr/local/research/Gaussian09/g09-revD.01/g09/l303.exe)
 DipDrv:  MaxL=1.
 Leave Link  303 at Fri Sep 11 13:23:51 2015, MaxMem=    33554432 cpu:         0.1
 (Enter /usr/local/research/Gaussian09/g09-revD.01/g09/l401.exe)
 Initial guess from the checkpoint file:  "4-tct.chk"
 B after Tr=     0.000000    0.000000    0.000000
         Rot=    0.999999    0.000000    0.000000   -0.001075 Ang=  -0.12 deg.
 Guess basis will be translated and rotated to current coordinates.
 JPrj=2 DoOrth=T DoCkMO=T.
 Initial guess orbital symmetries:
       Occupied  (A') (A') (A') (A') (A') (A') (A') (A') (A') (A')
                 (A") (A') (A') (A") (A') (A') (A") (A") (A') (A')
       Virtual   (A') (A') (A') (A') (A') (A') (A') (A') (A') (A')
                 (A') (A') (A') (A') (A') (A') (A') (A') (A') (A')
                 (A') (A') (A') (A') (A') (A') (A') (A') (A') (A')
                 (A') (A') (A') (A') (A') (A') (A') (A') (A') (A')
                 (A') (A') (A') (A') (A') (A') (A') (A') (A") (A")
                 (A") (A") (A") (A") (A") (A") (A") (A") (A") (A")
                 (A") (A") (A") (A") (A") (A") (A") (A") (A") (A")
                 (A") (A") (A") (A") (A")
 The electronic state of the initial guess is 1-A'.
 Generating alternative initial guess.
 ExpMin= 1.22D-01 ExpMax= 2.27D+03 ExpMxC= 3.41D+02 IAcc=1 IRadAn=         1 AccDes= 0.00D+00
 Harris functional with IExCor= 1009 and IRadAn=       1 diagonalized for initial guess.
 HarFok:  IExCor= 1009 AccDes= 0.00D+00 IRadAn=         1 IDoV= 1 UseB2=F ITyADJ=14
 ICtDFT=  3500011 ScaDFX=  1.000000  1.000000  1.000000  1.000000
 FoFCou: FMM=F IPFlag=           0 FMFlag=      100000 FMFlg1=           0
         NFxFlg=           0 DoJE=T BraDBF=F KetDBF=T FulRan=T
         wScrn=  0.000000 ICntrl=     500 IOpCl=  0 I1Cent=   200000004 NGrid=           0
         NMat0=    1 NMatS0=      1 NMatT0=    0 NMatD0=    1 NMtDS0=    0 NMtDT0=    0
 Petite list used in FoFCou.
 Harris En= -283.972817778029    
 Leave Link  401 at Fri Sep 11 13:23:52 2015, MaxMem=    33554432 cpu:         0.8
 (Enter /usr/local/research/Gaussian09/g09-revD.01/g09/l502.exe)
 Closed shell SCF:
 Using DIIS extrapolation, IDIIS=  1040.
 Integral symmetry usage will be decided dynamically.
 Keep J ints in memory in symmetry-blocked form, NReq=15735152.
 IVT=       37446 IEndB=       37446 NGot=    33554432 MDV=    28218456
 LenX=    28218456 LenY=    28208015
 Requested convergence on RMS density matrix=1.00D-08 within  64 cycles.
 Requested convergence on MAX density matrix=1.00D-06.
 Requested convergence on             energy=1.00D-06.
 No special actions if energy rises.
 FoFCou: FMM=F IPFlag=           0 FMFlag=           0 FMFlg1=           0
         NFxFlg=           0 DoJE=F BraDBF=F KetDBF=F FulRan=T
         wScrn=  0.000000 ICntrl=     600 IOpCl=  0 I1Cent=           0 NGrid=           0
         NMat0=    1 NMatS0=   4560 NMatT0=    0 NMatD0=    1 NMtDS0=    0 NMtDT0=    0
 Petite list used in FoFCou.
 Integral accuracy reduced to 1.0D-05 until final iterations.

 Cycle   1  Pass 0  IDiag  1:
 E= -283.890638848882    
 DIIS: error= 6.79D-03 at cycle   1 NSaved=   1.
 NSaved= 1 IEnMin= 1 EnMin= -283.890638848882     IErMin= 1 ErrMin= 6.79D-03
 ErrMax= 6.79D-03  0.00D+00 EMaxC= 1.00D-01 BMatC= 5.20D-03 BMatP= 5.20D-03
 IDIUse=3 WtCom= 9.32D-01 WtEn= 6.79D-02
 Coeff-Com:  0.100D+01
 Coeff-En:   0.100D+01
 Coeff:      0.100D+01
 Gap=     0.559 Goal=   None    Shift=    0.000
 GapD=    0.559 DampG=2.000 DampE=1.000 DampFc=2.0000 IDamp=-1.
 RMSDP=1.57D-03 MaxDP=2.52D-02              OVMax= 3.52D-02

 Cycle   2  Pass 0  IDiag  1:
 E= -283.896485584239     Delta-E=       -0.005846735356 Rises=F Damp=F
 DIIS: error= 1.76D-03 at cycle   2 NSaved=   2.
 NSaved= 2 IEnMin= 2 EnMin= -283.896485584239     IErMin= 2 ErrMin= 1.76D-03
 ErrMax= 1.76D-03  0.00D+00 EMaxC= 1.00D-01 BMatC= 5.05D-04 BMatP= 5.20D-03
 IDIUse=3 WtCom= 9.82D-01 WtEn= 1.76D-02
 Coeff-Com:  0.122D+00 0.878D+00
 Coeff-En:   0.000D+00 0.100D+01
 Coeff:      0.120D+00 0.880D+00
 Gap=     0.162 Goal=   None    Shift=    0.000
 RMSDP=6.68D-04 MaxDP=1.36D-02 DE=-5.85D-03 OVMax= 2.53D-02

 Cycle   3  Pass 0  IDiag  1:
 E= -283.895458105380     Delta-E=        0.001027478858 Rises=F Damp=F
 DIIS: error= 4.57D-03 at cycle   3 NSaved=   3.
 NSaved= 3 IEnMin= 2 EnMin= -283.896485584239     IErMin= 2 ErrMin= 1.76D-03
 ErrMax= 4.57D-03  0.00D+00 EMaxC= 1.00D-01 BMatC= 1.79D-03 BMatP= 5.05D-04
 IDIUse=3 WtCom= 1.29D-01 WtEn= 8.71D-01
 Coeff-Com:  0.250D-01 0.651D+00 0.324D+00
 Coeff-En:   0.000D+00 0.725D+00 0.275D+00
 Coeff:      0.323D-02 0.716D+00 0.281D+00
 Gap=     0.159 Goal=   None    Shift=    0.000
 RMSDP=3.74D-04 MaxDP=9.22D-03 DE= 1.03D-03 OVMax= 1.75D-02

 Cycle   4  Pass 0  IDiag  1:
 E= -283.896863554401     Delta-E=       -0.001405449020 Rises=F Damp=F
 DIIS: error= 6.11D-04 at cycle   4 NSaved=   4.
 NSaved= 4 IEnMin= 4 EnMin= -283.896863554401     IErMin= 4 ErrMin= 6.11D-04
 ErrMax= 6.11D-04  0.00D+00 EMaxC= 1.00D-01 BMatC= 6.29D-05 BMatP= 5.05D-04
 IDIUse=3 WtCom= 9.94D-01 WtEn= 6.11D-03
 Coeff-Com:  0.372D-03 0.343D+00 0.141D+00 0.516D+00
 Coeff-En:   0.000D+00 0.173D-01 0.000D+00 0.983D+00
 Coeff:      0.369D-03 0.341D+00 0.140D+00 0.519D+00
 Gap=     0.157 Goal=   None    Shift=    0.000
 RMSDP=1.15D-04 MaxDP=2.96D-03 DE=-1.41D-03 OVMax= 2.53D-03

 Cycle   5  Pass 0  IDiag  1:
 E= -283.896917430498     Delta-E=       -0.000053876097 Rises=F Damp=F
 DIIS: error= 1.99D-04 at cycle   5 NSaved=   5.
 NSaved= 5 IEnMin= 5 EnMin= -283.896917430498     IErMin= 5 ErrMin= 1.99D-04
 ErrMax= 1.99D-04  0.00D+00 EMaxC= 1.00D-01 BMatC= 5.04D-06 BMatP= 6.29D-05
 IDIUse=3 WtCom= 9.98D-01 WtEn= 1.99D-03
 Coeff-Com:  0.280D-03 0.168D+00 0.664D-01 0.308D+00 0.457D+00
 Coeff-En:   0.000D+00 0.000D+00 0.000D+00 0.000D+00 0.100D+01
 Coeff:      0.280D-03 0.168D+00 0.662D-01 0.307D+00 0.458D+00
 Gap=     0.158 Goal=   None    Shift=    0.000
 RMSDP=2.50D-05 MaxDP=6.32D-04 DE=-5.39D-05 OVMax= 7.20D-04

 Cycle   6  Pass 0  IDiag  1:
 E= -283.896921676390     Delta-E=       -0.000004245892 Rises=F Damp=F
 DIIS: error= 6.22D-05 at cycle   6 NSaved=   6.
 NSaved= 6 IEnMin= 6 EnMin= -283.896921676390     IErMin= 6 ErrMin= 6.22D-05
 ErrMax= 6.22D-05  0.00D+00 EMaxC= 1.00D-01 BMatC= 3.96D-07 BMatP= 5.04D-06
 IDIUse=1 WtCom= 1.00D+00 WtEn= 0.00D+00
 Coeff-Com:  0.309D-03 0.764D-01 0.297D-01 0.152D+00 0.281D+00 0.461D+00
 Coeff:      0.309D-03 0.764D-01 0.297D-01 0.152D+00 0.281D+00 0.461D+00
 Gap=     0.158 Goal=   None    Shift=    0.000
 RMSDP=6.93D-06 MaxDP=1.53D-04 DE=-4.25D-06 OVMax= 1.43D-04

[...]
         3        -0.1858      0.6981      0.0000
         4         0.0000      0.0000      0.1969
         5         0.0000      0.0000      0.1259
         6         0.0000      0.0000     -0.1502
         7        -0.0766      0.0885      0.0000
         8        -0.0045     -0.2401      0.0000
         9         0.0000      0.0000     -0.3184
        10         0.0000      0.0000     -0.4473
        11         0.0000      0.0000     -0.4742
        12         0.0000      0.0000      0.3297
        13        -1.1798     -0.1879      0.0000
        14        -0.1494      0.2319      0.0000
        15        -0.3833      0.0403      0.0000
        16         0.7872     -0.3207      0.0000
        17        -0.1676     -0.4037      0.0000
        18         0.3540      0.5949      0.0000
        19        -0.4129      0.2094      0.0000
        20         0.0000      0.0000     -0.0912
        21         0.0000      0.0000     -0.5323
        22         0.0000      0.0000      0.5456
        23        -0.5440     -0.5575      0.0000
        24        -0.2579     -0.0658      0.0000
 Ground to excited state transition velocity quadrupole moments (Au):
       state          XX          YY          ZZ          XY          XZ          YZ
         1         0.0000      0.0000      0.0000      0.0000     -0.0588      0.0614
         2         0.0055     -0.3501      0.0295     -0.3003      0.0000      0.0000
         3         0.0000      0.0000      0.0000      0.0000     -0.0163      0.0001
         4         0.2265     -0.4038      0.0697     -0.1746      0.0000      0.0000
         5        -0.1164     -0.0653     -0.0664      0.0505      0.0000      0.0000
         6         0.1660      0.0943      0.0505      0.0990      0.0000      0.0000
         7         0.0000      0.0000      0.0000      0.0000     -0.0541     -0.0406
         8         0.0000      0.0000      0.0000      0.0000      0.1362      0.0368
         9        -0.2075      0.6540     -0.1144      0.1516      0.0000      0.0000
        10         0.6337     -0.3464      0.1249      0.5584      0.0000      0.0000
        11         0.1152     -0.2353     -0.1595      0.2180      0.0000      0.0000
        12         0.1804     -0.0822      0.0264     -0.2027      0.0000      0.0000
        13         0.0000      0.0000      0.0000      0.0000      0.0479     -0.1716
        14         0.0000      0.0000      0.0000      0.0000     -0.1955     -0.0614
        15         0.0000      0.0000      0.0000      0.0000      0.0588     -0.0462
        16         0.0000      0.0000      0.0000      0.0000     -0.2577      0.2397
        17         0.0000      0.0000      0.0000      0.0000      0.4164     -0.0471
        18         0.0000      0.0000      0.0000      0.0000     -0.5057      0.0648
        19         0.0000      0.0000      0.0000      0.0000     -0.2275     -0.2199
        20         0.0015      0.0566      0.0410     -0.0257      0.0000      0.0000
        21        -0.0905     -0.2686      0.0744     -0.4342      0.0000      0.0000
        22         0.2857      0.0909     -0.0821     -0.0870      0.0000      0.0000
        23         0.0000      0.0000      0.0000      0.0000      0.3466     -0.3704
        24         0.0000      0.0000      0.0000      0.0000      0.1190     -0.2133
 <0|del|b> * <b|rxdel|0> + <0|del|b> * <b|delr+rdel|0>
 Rotatory Strengths (R) in cgs (10**-40 erg-esu-cm/Gauss)
       state          XX          YY          ZZ    R(velocity)    E-M Angle
         1         0.0000      0.0000      0.0000      0.0000       90.00
         2         0.0000      0.0000      0.0000      0.0000       90.00
         3         0.0000      0.0000      0.0000      0.0000       90.00
         4         0.0000      0.0000      0.0000      0.0000       90.00
         5         0.0000      0.0000      0.0000      0.0000       90.00
         6         0.0000      0.0000      0.0000      0.0000       90.00
         7         0.0000      0.0000      0.0000      0.0000       90.00
         8         0.0000      0.0000      0.0000      0.0000       90.00
         9         0.0000      0.0000      0.0000      0.0000       90.00
        10         0.0000      0.0000      0.0000      0.0000       90.00
        11         0.0000      0.0000      0.0000      0.0000       90.00
        12         0.0000      0.0000      0.0000      0.0000       90.00
        13         0.0000      0.0000      0.0000      0.0000       90.00
        14         0.0000      0.0000      0.0000      0.0000       90.00
        15         0.0000      0.0000      0.0000      0.0000       90.00
        16         0.0000      0.0000      0.0000      0.0000       90.00
        17         0.0000      0.0000      0.0000      0.0000       90.00
        18         0.0000      0.0000      0.0000      0.0000       90.00
        19         0.0000      0.0000      0.0000      0.0000       90.00
        20         0.0000      0.0000      0.0000      0.0000       90.00
        21         0.0000      0.0000      0.0000      0.0000       90.00
        22         0.0000      0.0000      0.0000      0.0000       90.00
        23         0.0000      0.0000      0.0000      0.0000       90.00
        24         0.0000      0.0000      0.0000      0.0000       90.00
 1/2[<0|r|b>*<b|rxdel|0> + (<0|rxdel|b>*<b|r|0>)*]
 Rotatory Strengths (R) in cgs (10**-40 erg-esu-cm/Gauss)
       state          XX          YY          ZZ     R(length)
         1         0.0000      0.0000      0.0000      0.0000
         2         0.0000      0.0000      0.0000      0.0000
         3         0.0000      0.0000      0.0000      0.0000
         4         0.0000      0.0000      0.0000      0.0000
         5         0.0000      0.0000      0.0000      0.0000
         6         0.0000      0.0000      0.0000      0.0000
         7         0.0000      0.0000      0.0000      0.0000
         8         0.0000      0.0000      0.0000      0.0000
         9         0.0000      0.0000      0.0000      0.0000
        10         0.0000      0.0000      0.0000      0.0000
        11         0.0000      0.0000      0.0000      0.0000
        12         0.0000      0.0000      0.0000      0.0000
        13         0.0000      0.0000      0.0000      0.0000
        14         0.0000      0.0000      0.0000      0.0000
        15         0.0000      0.0000      0.0000      0.0000
        16         0.0000      0.0000      0.0000      0.0000
        17         0.0000      0.0000      0.0000      0.0000
        18         0.0000      0.0000      0.0000      0.0000
        19         0.0000      0.0000      0.0000      0.0000
        20         0.0000      0.0000      0.0000      0.0000
        21         0.0000      0.0000      0.0000      0.0000
        22         0.0000      0.0000      0.0000      0.0000
        23         0.0000      0.0000      0.0000      0.0000
        24         0.0000      0.0000      0.0000      0.0000
  1/2[<0|del|b>*<b|r|0> + (<0|r|b>*<b|del|0>)*] (Au)
       state          X           Y           Z        Dip. S.   Osc.(frdel)
         1         0.0000      0.0000     -0.0018      0.0018      0.0012
         2        -0.0040      0.0003      0.0000      0.0037      0.0024
         3         0.0000      0.0000     -0.0004      0.0004      0.0003
         4        -0.0094     -0.0233      0.0000      0.0327      0.0218
         5        -0.0208     -0.0136      0.0000      0.0345      0.0230
         6        -0.0546     -0.0012      0.0000      0.0557      0.0372
         7         0.0000      0.0000     -0.0127      0.0127      0.0084
         8         0.0000      0.0000     -0.0032      0.0032      0.0021
         9        -0.0060     -0.0370      0.0000      0.0430      0.0287
        10        -0.0004     -0.0437      0.0000      0.0441      0.0294
        11        -0.2038     -0.0023      0.0000      0.2061      0.1374
        12        -0.0001     -0.0068      0.0000      0.0069      0.0046
        13         0.0000      0.0000     -0.0017      0.0017      0.0011
        14         0.0000      0.0000     -0.0001      0.0001      0.0001
        15         0.0000      0.0000     -0.0012      0.0012      0.0008
        16         0.0000      0.0000     -0.0061      0.0061      0.0041
        17         0.0000      0.0000     -0.0082      0.0082      0.0055
        18         0.0000      0.0000     -0.0071      0.0071      0.0048
        19         0.0000      0.0000     -0.0008      0.0008      0.0005
        20        -0.0154     -0.0024      0.0000      0.0179      0.0119
        21        -0.0535     -0.0664      0.0000      0.1199      0.0799
        22        -0.0488     -0.0123      0.0000      0.0612      0.0408
        23         0.0000      0.0000     -0.0008      0.0008      0.0005
        24         0.0000      0.0000     -0.0135      0.0135      0.0090

 Excitation energies and oscillator strengths:
 
 Excited State   1:      Singlet-A"     4.5669 eV  271.49 nm  f=0.0008  <S**2>=0.000
      20 -> 21         0.70580
 This state for optimization and/or second-order correction.
 Total Energy, E(TD-HF/TD-KS) =  -283.733322453    
 Copying the excited state density for this state as the 1-particle RhoCI density.
 
 Excited State   2:      Singlet-A'     5.8215 eV  212.98 nm  f=0.0050  <S**2>=0.000
      20 -> 22         0.70386
 
 Excited State   3:      Singlet-A"     6.0808 eV  203.90 nm  f=0.0002  <S**2>=0.000
      19 -> 21         0.70598
 
 Excited State   4:      Singlet-A'     6.7510 eV  183.65 nm  f=0.0130  <S**2>=0.000
      20 -> 23         0.69980
 
 Excited State   5:      Singlet-A'     7.2887 eV  170.10 nm  f=0.0192  <S**2>=0.000
      18 -> 21         0.20178
      19 -> 22         0.65157
      20 -> 24        -0.17857
 
 Excited State   6:      Singlet-A'     7.4035 eV  167.47 nm  f=0.0285  <S**2>=0.000
      19 -> 22         0.16485
      20 -> 24         0.67873
 
 Excited State   7:      Singlet-A"     7.5565 eV  164.08 nm  f=0.0086  <S**2>=0.000
      20 -> 25         0.70522
 
 Excited State   8:      Singlet-A"     8.0692 eV  153.65 nm  f=0.0008  <S**2>=0.000
      18 -> 22         0.70493
 
 Excited State   9:      Singlet-A'     8.1550 eV  152.04 nm  f=0.0329  <S**2>=0.000
      17 -> 21         0.10044
      18 -> 21        -0.30710
      19 -> 23         0.61098
 
 Excited State  10:      Singlet-A'     8.3646 eV  148.23 nm  f=0.0315  <S**2>=0.000
      14 -> 21        -0.11475
      17 -> 21        -0.35778
      18 -> 21         0.44258
      19 -> 22        -0.13286
      19 -> 23         0.33786
 
 Excited State  11:      Singlet-A'     8.6356 eV  143.57 nm  f=0.1524  <S**2>=0.000
      17 -> 21         0.57775
      18 -> 21         0.31956
      18 -> 25         0.11605
      19 -> 22        -0.10644
      19 -> 23         0.10214
 
 Excited State  12:      Singlet-A'     8.8421 eV  140.22 nm  f=0.0064  <S**2>=0.000
      19 -> 24         0.70174
 
 Excited State  13:      Singlet-A"     8.8935 eV  139.41 nm  f=0.0007  <S**2>=0.000
      16 -> 21         0.69614
 
 Excited State  14:      Singlet-A"     8.9540 eV  138.47 nm  f=0.0000  <S**2>=0.000
      18 -> 23         0.69691
 
 Excited State  15:      Singlet-A"     8.9748 eV  138.15 nm  f=0.0010  <S**2>=0.000
      19 -> 25         0.53633
      20 -> 26        -0.45557
 
 Excited State  16:      Singlet-A"     9.1106 eV  136.09 nm  f=0.0030  <S**2>=0.000
      19 -> 25         0.45711
      20 -> 26         0.53477
 
 Excited State  17:      Singlet-A"     9.4472 eV  131.24 nm  f=0.0036  <S**2>=0.000
      15 -> 21         0.28209
      17 -> 22         0.64202
 
 Excited State  18:      Singlet-A"     9.4759 eV  130.84 nm  f=0.0053  <S**2>=0.000
      15 -> 21         0.63822
      17 -> 22        -0.28120
 
 Excited State  19:      Singlet-A"     9.5670 eV  129.60 nm  f=0.0003  <S**2>=0.000
      18 -> 24         0.70338
 
 Excited State  20:      Singlet-A'     9.8314 eV  126.11 nm  f=0.0107  <S**2>=0.000
      18 -> 25         0.67518
      20 -> 27         0.12548
 
 Excited State  21:      Singlet-A'    10.0491 eV  123.38 nm  f=0.0773  <S**2>=0.000
      16 -> 22         0.68309
      20 -> 28         0.11112
 
 Excited State  22:      Singlet-A'    10.2987 eV  120.39 nm  f=0.0407  <S**2>=0.000
      14 -> 21        -0.12565
      18 -> 25        -0.10639
      20 -> 27         0.65255
 
 Excited State  23:      Singlet-A"    10.3639 eV  119.63 nm  f=0.0002  <S**2>=0.000
      17 -> 23         0.70391
 
 Excited State  24:      Singlet-A"    10.5158 eV  117.90 nm  f=0.0089  <S**2>=0.000
      19 -> 26         0.70295
 SavETr:  write IOETrn=   770 NScale= 10 NData=  16 NLR=1 NState=   24 LETran=     442.
 Leave Link  914 at Fri Sep 11 13:30:11 2015, MaxMem=    33554432 cpu:       113.4
 (Enter /usr/local/research/Gaussian09/g09-revD.01/g09/l601.exe)
 Copying SCF densities to generalized density rwf, IOpCl= 0 IROHF=0.

 **********************************************************************

            Population analysis using the SCF density.

 **********************************************************************

 Orbital symmetries:
       Occupied  (A') (A') (A') (A') (A') (A') (A') (A') (A') (A')
                 (A") (A') (A') (A") (A') (A') (A") (A") (A') (A')
       Virtual   (A") (A') (A') (A') (A") (A") (A') (A') (A') (A')
                 (A") (A') (A') (A") (A') (A') (A') (A') (A") (A')
                 (A") (A') (A') (A') (A') (A") (A') (A") (A') (A')
                 (A") (A') (A") (A') (A') (A") (A") (A') (A") (A')
                 (A") (A') (A') (A") (A') (A') (A") (A") (A') (A')
                 (A") (A') (A') (A') (A") (A') (A') (A') (A") (A')
                 (A") (A') (A') (A") (A") (A') (A") (A') (A") (A')
                 (A') (A") (A') (A') (A')
 The electronic state is 1-A'.
 Alpha  occ. eigenvalues --  -18.80994 -18.74565 -13.98384 -10.01417  -9.93692
 Alpha  occ. eigenvalues --   -1.00322  -0.91386  -0.80377  -0.63726  -0.55292
 Alpha  occ. eigenvalues --   -0.45534  -0.44316  -0.41924  -0.39340  -0.37212
 Alpha  occ. eigenvalues --   -0.34635  -0.32706  -0.27640  -0.24857  -0.19363
 Alpha virt. eigenvalues --   -0.03046   0.01729   0.05140   0.07472   0.08164
 Alpha virt. eigenvalues --    0.13472   0.17176   0.18493   0.24641   0.32393
 Alpha virt. eigenvalues --    0.40467   0.41265   0.43325   0.46999   0.48364
 Alpha virt. eigenvalues --    0.52531   0.56397   0.57774   0.60279   0.60871
 Alpha virt. eigenvalues --    0.62816   0.62831   0.73947   0.74903   0.79758
 Alpha virt. eigenvalues --    0.80996   0.88197   0.88964   0.92269   1.02054
 Alpha virt. eigenvalues --    1.03026   1.08185   1.17788   1.18855   1.24898
 Alpha virt. eigenvalues --    1.32292   1.33822   1.35465   1.51569   1.51995
 Alpha virt. eigenvalues --    1.54707   1.56720   1.66910   1.68106   1.70419
 Alpha virt. eigenvalues --    1.76710   1.77153   1.78879   1.82619   1.85968
 Alpha virt. eigenvalues --    1.97234   1.99614   2.05724   2.08258   2.16668
 Alpha virt. eigenvalues --    2.18455   2.34572   2.37890   2.53768   2.57157
 Alpha virt. eigenvalues --    2.59044   2.61503   2.70057   2.77957   2.81256
 Alpha virt. eigenvalues --    2.82783   2.91010   2.97262   3.09449   3.10632
 Alpha virt. eigenvalues --    3.11628   3.28733   3.37557   3.52646   3.64463
          Condensed to atoms (all electrons):
               1          2          3          4          5          6
     1  N    6.157949   0.374606   0.366616   0.366616  -0.038302  -0.017894
     2  C    0.374606   4.994639  -0.049996  -0.049996   0.212070   0.346074
     3  H    0.366616  -0.049996   0.612460  -0.034219  -0.004457   0.009693
     4  H    0.366616  -0.049996  -0.034219   0.612460  -0.004457  -0.007867
     5  C   -0.038302   0.212070  -0.004457  -0.004457   4.798409  -0.021529
     6  H   -0.017894   0.346074   0.009693  -0.007867  -0.021529   0.631478
     7  H   -0.017894   0.346074  -0.007867   0.009693  -0.021529  -0.007928
     8  O    0.002616  -0.074850   0.000195   0.000195   0.649295   0.005795
     9  O    0.004123  -0.136695   0.007463   0.007463   0.397600   0.002738
    10  H   -0.001447   0.021113  -0.000374  -0.000374  -0.011397  -0.000822
               7          8          9         10
     1  N   -0.017894   0.002616   0.004123  -0.001447
     2  C    0.346074  -0.074850  -0.136695   0.021113
     3  H   -0.007867   0.000195   0.007463  -0.000374
     4  H    0.009693   0.000195   0.007463  -0.000374
     5  C   -0.021529   0.649295   0.397600  -0.011397
     6  H   -0.007928   0.005795   0.002738  -0.000822
     7  H    0.631478   0.005795   0.002738  -0.000822
     8  O    0.005795   7.675518  -0.078631   0.011241
     9  O    0.002738  -0.078631   7.666782   0.291421
    10  H   -0.000822   0.011241   0.291421   0.515050
 Mulliken charges:
               1
     1  N   -0.196989
     2  C    0.016960
     3  H    0.100485
     4  H    0.100485
     5  C    0.044296
     6  H    0.060261
     7  H    0.060261
     8  O   -0.197170
     9  O   -0.165003
    10  H    0.176413
 Sum of Mulliken charges =   0.00000
 Mulliken charges with hydrogens summed into heavy atoms:
               1
     1  N    0.003981
     2  C    0.137482
     5  C    0.044296
     8  O   -0.197170
     9  O    0.011410
 Electronic spatial extent (au):  <R**2>=            418.7401
 Charge=              0.0000 electrons
 Dipole moment (field-independent basis, Debye):
    X=              1.8463    Y=             -0.5703    Z=              0.0000  Tot=              1.9323
 Quadrupole moment (field-independent basis, Debye-Ang):
   XX=            -27.1533   YY=            -35.5880   ZZ=            -27.1780
   XY=              1.6271   XZ=              0.0000   YZ=              0.0000
 Traceless Quadrupole moment (field-independent basis, Debye-Ang):
   XX=              2.8198   YY=             -5.6149   ZZ=              2.7951
   XY=              1.6271   XZ=              0.0000   YZ=              0.0000
 Octapole moment (field-independent basis, Debye-Ang**2):
  XXX=              8.9707  YYY=              6.1461  ZZZ=              0.0000  XYY=             17.5587
  XXY=              7.0004  XXZ=              0.0000  XZZ=              1.0663  YZZ=             -1.2066
  YYZ=              0.0000  XYZ=              0.0000
 Hexadecapole moment (field-independent basis, Debye-Ang**3):
 XXXX=           -130.7807 YYYY=           -361.8819 ZZZZ=            -34.0639 XXXY=             -2.2981
 XXXZ=              0.0000 YYYX=            -24.1503 YYYZ=              0.0000 ZZZX=              0.0000
 ZZZY=              0.0000 XXYY=            -71.1696 XXZZ=            -28.1239 YYZZ=            -52.6630
 XXYZ=              0.0000 YYXZ=              0.0000 ZZXY=             -5.8009
 N-N= 1.784750144163D+02 E-N=-1.022528943139D+03  KE= 2.815546601570D+02
 Symmetry A'   KE= 2.685455711800D+02
 Symmetry A"   KE= 1.300908897705D+01
 Leave Link  601 at Fri Sep 11 13:30:11 2015, MaxMem=    33554432 cpu:         0.1
 (Enter /usr/local/research/Gaussian09/g09-revD.01/g09/l9999.exe)
 1\1\GINC-HEISENBERG\SP\RPBEPBE TD-FC\def2SVP\C2H5N1O2\LEIN\11-Sep-2015
 \0\\#p td=(nstates=24) pbepbe def2svp geom=allcheck guess=read\\-- Gly
 cine conformers --\\0,1\N,0,0.0798593818,-1.9447419468,0.\C,0,-0.77618
 55743,-0.7753866223,0.\H,0,0.7049077414,-1.9153039481,0.8150944859\H,0
 ,0.7049077414,-1.9153039481,-0.8150944859\C,0,-0.1392711347,0.61697689
 94,0.\H,0,-1.4581270634,-0.7954056284,-0.8783840594\H,0,-1.4581270634,
 -0.7954056284,0.8783840594\O,0,-0.757885056,1.6628606511,0.\O,0,1.2210
 947286,0.5628111681,0.\H,0,1.5154648487,1.5002115934,0.\\Version=EM64L
 -G09RevD.01\State=1-A'\HF=-283.9011512\RMSD=4.671e-09\PG=CS [SG(C2H1N1
 O2),X(H4)]\\@


 LIFE CAN ONLY BE UNDERSTOOD BACKWARD, BUT MUST
 BE LIVED FORWARD. -- KIRKEGAARD
 Job cpu time:       0 days  0 hours  1 minutes 59.7 seconds.
 File lengths (MBytes):  RWF=     46 Int=      0 D2E=      0 Chk=      9 Scr=      1
 Normal termination of Gaussian 09 at Fri Sep 11 13:30:11 2015.
