 Entering Gaussian System, Link 0=g09
 Initial command:
 /usr/local/research/Gaussian09/g09-revD.01/g09/l1.exe "/scratch/lein/Gau-2893.inp" -scrdir="/scratch/lein/"
 Entering Link 1 = /usr/local/research/Gaussian09/g09-revD.01/g09/l1.exe PID=      2896.
  
 Copyright (c) 1988,1990,1992,1993,1995,1998,2003,2009,2013,
            Gaussian, Inc.  All Rights Reserved.
  
 This is part of the Gaussian(R) 09 program.  It is based on
 the Gaussian(R) 03 system (copyright 2003, Gaussian, Inc.),
 the Gaussian(R) 98 system (copyright 1998, Gaussian, Inc.),
 the Gaussian(R) 94 system (copyright 1995, Gaussian, Inc.),
 the Gaussian 92(TM) system (copyright 1992, Gaussian, Inc.),
 the Gaussian 90(TM) system (copyright 1990, Gaussian, Inc.),
 the Gaussian 88(TM) system (copyright 1988, Gaussian, Inc.),
 the Gaussian 86(TM) system (copyright 1986, Carnegie Mellon
 University), and the Gaussian 82(TM) system (copyright 1983,
 Carnegie Mellon University). Gaussian is a federally registered
 trademark of Gaussian, Inc.
  
 This software contains proprietary and confidential information,
 including trade secrets, belonging to Gaussian, Inc.
  
 This software is provided under written license and may be
 used, copied, transmitted, or stored only in accord with that
 written license.
  
 The following legend is applicable only to US Government
 contracts under FAR:
  
                    RESTRICTED RIGHTS LEGEND
  
 Use, reproduction and disclosure by the US Government is
 subject to restrictions as set forth in subparagraphs (a)
 and (c) of the Commercial Computer Software - Restricted
 Rights clause in FAR 52.227-19.
  
 Gaussian, Inc.
 340 Quinnipiac St., Bldg. 40, Wallingford CT 06492
  
  
 ---------------------------------------------------------------
 Warning -- This program may not be used in any manner that
 competes with the business of Gaussian, Inc. or will provide
 assistance to any competitor of Gaussian, Inc.  The licensee
 of this program is prohibited from giving any competitor of
 Gaussian, Inc. access to this program.  By using this program,
 the user acknowledges that Gaussian, Inc. is engaged in the
 business of creating and licensing software in the field of
 computational chemistry and represents and warrants to the
 licensee that it is not a competitor of Gaussian, Inc. and that
 it will not use this program in any manner prohibited above.
 ---------------------------------------------------------------
  

 Cite this work as:
 Gaussian 09, Revision D.01,
 M. J. Frisch, G. W. Trucks, H. B. Schlegel, G. E. Scuseria, 
 M. A. Robb, J. R. Cheeseman, G. Scalmani, V. Barone, B. Mennucci, 
 G. A. Petersson, H. Nakatsuji, M. Caricato, X. Li, H. P. Hratchian, 
 A. F. Izmaylov, J. Bloino, G. Zheng, J. L. Sonnenberg, M. Hada, 
 M. Ehara, K. Toyota, R. Fukuda, J. Hasegawa, M. Ishida, T. Nakajima, 
 Y. Honda, O. Kitao, H. Nakai, T. Vreven, J. A. Montgomery, Jr., 
 J. E. Peralta, F. Ogliaro, M. Bearpark, J. J. Heyd, E. Brothers, 
 K. N. Kudin, V. N. Staroverov, T. Keith, R. Kobayashi, J. Normand, 
 K. Raghavachari, A. Rendell, J. C. Burant, S. S. Iyengar, J. Tomasi, 
 M. Cossi, N. Rega, J. M. Millam, M. Klene, J. E. Knox, J. B. Cross, 
 V. Bakken, C. Adamo, J. Jaramillo, R. Gomperts, R. E. Stratmann, 
 O. Yazyev, A. J. Austin, R. Cammi, C. Pomelli, J. W. Ochterski, 
 R. L. Martin, K. Morokuma, V. G. Zakrzewski, G. A. Voth, 
 P. Salvador, J. J. Dannenberg, S. Dapprich, A. D. Daniels, 
 O. Farkas, J. B. Foresman, J. V. Ortiz, J. Cioslowski, 
 and D. J. Fox, Gaussian, Inc., Wallingford CT, 2013.
 
 ******************************************
 Gaussian 09:  EM64L-G09RevD.01 24-Apr-2013
                11-Sep-2015 
 ******************************************
 %chk=5-gct.chk
 ----------------------------------
 #p opt freq pbepbe def2svp scf=xqc
 ----------------------------------
 1/14=-1,18=20,19=15,26=3,38=1/1,3;
 2/9=110,12=2,17=6,18=5,40=1/2;
 3/5=43,7=101,11=2,16=1,25=1,30=1,71=1,74=1009/1,2,3;
 4//1;
 5/5=2,8=3,13=1,38=5/2,8;
 6/7=2,8=2,9=2,10=2,28=1/1;
 7//1,2,3,16;
 1/14=-1,18=20,19=15,26=3/3(2);
 2/9=110/2;
 99//99;
 2/9=110/2;
 3/5=43,7=101,11=2,16=1,25=1,30=1,71=1,74=1009/1,2,3;
 4/5=5,16=3,69=1/1;
 5/5=2,8=3,13=1,38=5/2,8;
 7//1,2,3,16;
 1/14=-1,18=20,19=15,26=3/3(-5);
 2/9=110/2;
 6/7=2,8=2,9=2,10=2,19=2,28=1/1;
 99/9=1/99;
 Leave Link    1 at Fri Sep 11 13:30:11 2015, MaxMem=           0 cpu:         0.0
 (Enter /usr/local/research/Gaussian09/g09-revD.01/g09/l101.exe)
 ------------------------
 -- Glycine conformers --
 ------------------------
 Symbolic Z-matrix:
 Charge =  0 Multiplicity = 1
 N                     0.0438   -1.92595   0. 
 C                    -0.79717  -0.74596   0. 
 H                     0.86105  -1.67231  -0.5189 
 H                    -0.58115  -2.70014  -0.10748 
 C                     0.05661   0.51399   0. 
 H                    -1.42307  -0.74417  -0.90115 
 H                    -1.42307  -0.74417   0.90115 
 O                    -0.49262   1.64619   0. 
 O                     1.48291   0.41117   0. 
 H                     1.86759   1.29071   0. 
 
 NAtoms=     10 NQM=       10 NQMF=       0 NMMI=      0 NMMIF=      0
                NMic=       0 NMicF=      0.
                    Isotopes and Nuclear Properties:
 (Nuclear quadrupole moments (NQMom) in fm**2, nuclear magnetic moments (NMagM)
  in nuclear magnetons)

  Atom         1           2           3           4           5           6           7           8           9          10
 IAtWgt=          14          12           1           1          12           1           1          16          16           1
 AtmWgt=  14.0030740  12.0000000   1.0078250   1.0078250  12.0000000   1.0078250   1.0078250  15.9949146  15.9949146   1.0078250
 NucSpn=           2           0           1           1           0           1           1           0           0           1
 AtZEff=   0.0000000   0.0000000   0.0000000   0.0000000   0.0000000   0.0000000   0.0000000   0.0000000   0.0000000   0.0000000
 NQMom=    2.0440000   0.0000000   0.0000000   0.0000000   0.0000000   0.0000000   0.0000000   0.0000000   0.0000000   0.0000000
 NMagM=    0.4037610   0.0000000   2.7928460   2.7928460   0.0000000   2.7928460   2.7928460   0.0000000   0.0000000   2.7928460
 AtZNuc=   7.0000000   6.0000000   1.0000000   1.0000000   6.0000000   1.0000000   1.0000000   8.0000000   8.0000000   1.0000000
 Leave Link  101 at Fri Sep 11 13:30:11 2015, MaxMem=    33554432 cpu:         0.2
 (Enter /usr/local/research/Gaussian09/g09-revD.01/g09/l103.exe)

 GradGradGradGradGradGradGradGradGradGradGradGradGradGradGradGradGradGrad
 Berny optimization.
 Initialization pass.
                           ----------------------------
                           !    Initial Parameters    !
                           ! (Angstroms and Degrees)  !
 --------------------------                            --------------------------
 ! Name  Definition              Value          Derivative Info.                !
 --------------------------------------------------------------------------------
 ! R1    R(1,2)                  1.449          estimate D2E/DX2                !
 ! R2    R(1,3)                  1.0007         estimate D2E/DX2                !
 ! R3    R(1,4)                  1.0007         estimate D2E/DX2                !
 ! R4    R(2,5)                  1.522          estimate D2E/DX2                !
 ! R5    R(2,6)                  1.0972         estimate D2E/DX2                !
 ! R6    R(2,7)                  1.0972         estimate D2E/DX2                !
 ! R7    R(5,8)                  1.2584         estimate D2E/DX2                !
 ! R8    R(5,9)                  1.43           estimate D2E/DX2                !
 ! R9    R(9,10)                 0.96           estimate D2E/DX2                !
 ! A1    A(2,1,3)              105.5191         estimate D2E/DX2                !
 ! A2    A(2,1,4)              105.5191         estimate D2E/DX2                !
 ! A3    A(3,1,4)              130.5691         estimate D2E/DX2                !
 ! A4    A(1,2,5)              110.4            estimate D2E/DX2                !
 ! A5    A(1,2,6)              109.4154         estimate D2E/DX2                !
 ! A6    A(1,2,7)              109.4154         estimate D2E/DX2                !
 ! A7    A(5,2,6)              108.5817         estimate D2E/DX2                !
 ! A8    A(5,2,7)              108.5817         estimate D2E/DX2                !
 ! A9    A(6,2,7)              110.435          estimate D2E/DX2                !
 ! A10   A(2,5,8)              119.9994         estimate D2E/DX2                !
 ! A11   A(2,5,9)              119.9999         estimate D2E/DX2                !
 ! A12   A(8,5,9)              120.0008         estimate D2E/DX2                !
 ! A13   A(5,9,10)             109.4997         estimate D2E/DX2                !
 ! D1    D(3,1,2,5)            -32.5567         estimate D2E/DX2                !
 ! D2    D(3,1,2,6)             86.8863         estimate D2E/DX2                !
 ! D3    D(3,1,2,7)           -151.9996         estimate D2E/DX2                !
 ! D4    D(4,1,2,5)           -173.6            estimate D2E/DX2                !
 ! D5    D(4,1,2,6)            -54.157          estimate D2E/DX2                !
 ! D6    D(4,1,2,7)             66.957          estimate D2E/DX2                !
 ! D7    D(1,2,5,8)            180.0            estimate D2E/DX2                !
 ! D8    D(1,2,5,9)              0.0            estimate D2E/DX2                !
 ! D9    D(6,2,5,8)             60.0537         estimate D2E/DX2                !
 ! D10   D(6,2,5,9)           -119.9463         estimate D2E/DX2                !
 ! D11   D(7,2,5,8)            -60.0537         estimate D2E/DX2                !
 ! D12   D(7,2,5,9)            119.9463         estimate D2E/DX2                !
 ! D13   D(2,5,9,10)           180.0            estimate D2E/DX2                !
 ! D14   D(8,5,9,10)             0.0            estimate D2E/DX2                !
 --------------------------------------------------------------------------------
 Trust Radius=3.00D-01 FncErr=1.00D-07 GrdErr=1.00D-06
 Number of steps in this run=     46 maximum allowed number of steps=    100.
 GradGradGradGradGradGradGradGradGradGradGradGradGradGradGradGradGradGrad

 Leave Link  103 at Fri Sep 11 13:30:11 2015, MaxMem=    33554432 cpu:         0.0
 (Enter /usr/local/research/Gaussian09/g09-revD.01/g09/l202.exe)
                          Input orientation:                          
 ---------------------------------------------------------------------
 Center     Atomic      Atomic             Coordinates (Angstroms)
 Number     Number       Type             X           Y           Z
 ---------------------------------------------------------------------
      1          7           0        0.043799   -1.925951    0.000000
      2          6           0       -0.797168   -0.745963    0.000000
      3          1           0        0.861047   -1.672307   -0.518899
      4          1           0       -0.581146   -2.700145   -0.107485
      5          6           0        0.056614    0.513985    0.000000
      6          1           0       -1.423071   -0.744169   -0.901147
      7          1           0       -1.423071   -0.744169    0.901147
      8          8           0       -0.492615    1.646194    0.000000
      9          8           0        1.482910    0.411172    0.000000
     10          1           0        1.867587    1.290714    0.000000
 ---------------------------------------------------------------------
                    Distance matrix (angstroms):
                    1          2          3          4          5
     1  N    0.000000
     2  C    1.448999   0.000000
     3  H    1.000743   1.969022   0.000000
     4  H    1.000743   1.969022   1.818140   0.000000
     5  C    2.439970   1.521976   2.386680   3.278555   0.000000
     6  H    2.088153   1.097189   2.494944   2.272571   2.141141
     7  H    2.088153   1.097189   2.845200   2.356272   2.141141
     8  O    3.612196   2.411465   3.621340   4.348569   1.258392
     9  O    2.744665   2.556896   2.235365   3.735261   1.429997
    10  H    3.697720   3.353948   3.172045   4.683460   1.970516
                    6          7          8          9         10
     6  H    0.000000
     7  H    1.802294   0.000000
     8  O    2.718758   2.718758   0.000000
     9  O    3.254474   3.254474   2.329803   0.000000
    10  H    3.972561   3.972561   2.386822   0.959984   0.000000
 Stoichiometry    C2H5NO2
 Framework group  C1[X(C2H5NO2)]
 Deg. of freedom    24
 Full point group                 C1      NOp   1
 Largest Abelian subgroup         C1      NOp   1
 Largest concise Abelian subgroup C1      NOp   1
                         Standard orientation:                         
 ---------------------------------------------------------------------
 Center     Atomic      Atomic             Coordinates (Angstroms)
 Number     Number       Type             X           Y           Z
 ---------------------------------------------------------------------
      1          7           0       -1.827881    0.291846   -0.049747
      2          6           0       -0.814293   -0.743055   -0.014861
      3          1           0       -1.442679    1.061239    0.461271
      4          1           0       -2.701491   -0.185419    0.052773
      5          6           0        0.575989   -0.123848   -0.004340
      6          1           0       -0.936745   -1.342951    0.895608
      7          1           0       -0.908416   -1.375944   -0.906161
      8          8           0        1.593844   -0.863203    0.025201
      9          8           0        0.725578    1.298107   -0.028026
     10          1           0        1.658944    1.522350   -0.017457
 ---------------------------------------------------------------------
 Rotational constants (GHZ):      9.0616262      4.0882184      2.8781861
 Leave Link  202 at Fri Sep 11 13:30:11 2015, MaxMem=    33554432 cpu:         0.0
 (Enter /usr/local/research/Gaussian09/g09-revD.01/g09/l301.exe)
 Standard basis: def2SVP (5D, 7F)
 Ernie: Thresh=  0.10000D-02 Tol=  0.10000D-05 Strict=F.
 There are   100 symmetry adapted cartesian basis functions of A   symmetry.
 There are    95 symmetry adapted basis functions of A   symmetry.
    95 basis functions,   160 primitive gaussians,   100 cartesian basis functions
    20 alpha electrons       20 beta electrons
       nuclear repulsion energy       176.7597353844 Hartrees.
 IExCor= 1009 DFT=T Ex=PBE Corr=PBE ExCW=0 ScaHFX=  0.000000
 ScaDFX=  1.000000  1.000000  1.000000  1.000000 ScalE2=  1.000000  1.000000
 IRadAn=      0 IRanWt=     -1 IRanGd=            0 ICorTp=0 IEmpDi=  4
 NAtoms=   10 NActive=   10 NUniq=   10 SFac= 1.00D+00 NAtFMM=   60 NAOKFM=F Big=F
 Integral buffers will be    131072 words long.
 Raffenetti 2 integral format.
 Two-electron integral symmetry is turned on.
 Leave Link  301 at Fri Sep 11 13:30:11 2015, MaxMem=    33554432 cpu:         0.1
 (Enter /usr/local/research/Gaussian09/g09-revD.01/g09/l302.exe)
 NPDir=0 NMtPBC=     1 NCelOv=     1 NCel=       1 NClECP=     1 NCelD=      1
         NCelK=      1 NCelE2=     1 NClLst=     1 CellRange=     0.0.
 One-electron integrals computed using PRISM.
   1 Symmetry operations used in ECPInt.
 ECPInt:  NShTT=    1035 NPrTT=    3735 LenC2=    1033 LenP2D=    3183.
 LDataN:  DoStor=T MaxTD1= 4 Len=   56
 NBasis=    95 RedAO= T EigKep=  2.33D-03  NBF=    95
 NBsUse=    95 1.00D-06 EigRej= -1.00D+00 NBFU=    95
 Precomputing XC quadrature grid using
 IXCGrd= 4 IRadAn=           0 IRanWt=          -1 IRanGd=           0 AccXCQ= 0.00D+00.
 Generated NRdTot=       0 NPtTot=           0 NUsed=           0 NTot=          32
 NSgBfM=   100   100   100   100   100 MxSgAt=    10 MxSgA2=    10.
 Leave Link  302 at Fri Sep 11 13:30:12 2015, MaxMem=    33554432 cpu:         0.5
 (Enter /usr/local/research/Gaussian09/g09-revD.01/g09/l303.exe)
 DipDrv:  MaxL=1.
 Leave Link  303 at Fri Sep 11 13:30:12 2015, MaxMem=    33554432 cpu:         0.1
 (Enter /usr/local/research/Gaussian09/g09-revD.01/g09/l401.exe)
 ExpMin= 1.22D-01 ExpMax= 2.27D+03 ExpMxC= 3.41D+02 IAcc=1 IRadAn=         1 AccDes= 0.00D+00
 Harris functional with IExCor= 1009 and IRadAn=       1 diagonalized for initial guess.
 HarFok:  IExCor= 1009 AccDes= 0.00D+00 IRadAn=         1 IDoV= 1 UseB2=F ITyADJ=14
 ICtDFT=  3500011 ScaDFX=  1.000000  1.000000  1.000000  1.000000
 FoFCou: FMM=F IPFlag=           0 FMFlag=      100000 FMFlg1=           0
         NFxFlg=           0 DoJE=T BraDBF=F KetDBF=T FulRan=T
         wScrn=  0.000000 ICntrl=     500 IOpCl=  0 I1Cent=   200000004 NGrid=           0
         NMat0=    1 NMatS0=      1 NMatT0=    0 NMatD0=    1 NMtDS0=    0 NMtDT0=    0
 Petite list used in FoFCou.
 Harris En= -283.951599995601    
 JPrj=0 DoOrth=F DoCkMO=F.
 Leave Link  401 at Fri Sep 11 13:30:13 2015, MaxMem=    33554432 cpu:         0.8
 (Enter /usr/local/research/Gaussian09/g09-revD.01/g09/l502.exe)
 Closed shell SCF:
 Using DIIS extrapolation, IDIIS=  1040.
 Integral symmetry usage will be decided dynamically.
 Keep J ints in memory in canonical form, NReq=11359554.
 IVT=       37302 IEndB=       37302 NGot=    33554432 MDV=    23118051
 LenX=    23118051 LenY=    23107610
 Requested convergence on RMS density matrix=1.00D-08 within  64 cycles.
 Requested convergence on MAX density matrix=1.00D-06.
 Requested convergence on             energy=1.00D-06.
 No special actions if energy rises.
 FoFCou: FMM=F IPFlag=           0 FMFlag=           0 FMFlg1=           0
         NFxFlg=           0 DoJE=F BraDBF=F KetDBF=F FulRan=T
         wScrn=  0.000000 ICntrl=     600 IOpCl=  0 I1Cent=           0 NGrid=           0
         NMat0=    1 NMatS0=   4560 NMatT0=    0 NMatD0=    1 NMtDS0=    0 NMtDT0=    0
 Symmetry not used in FoFCou.
 Integral accuracy reduced to 1.0D-05 until final iterations.

 Cycle   1  Pass 0  IDiag  1:
 E= -283.718267304094    
 DIIS: error= 2.88D-02 at cycle   1 NSaved=   1.
 NSaved= 1 IEnMin= 1 EnMin= -283.718267304094     IErMin= 1 ErrMin= 2.88D-02
 ErrMax= 2.88D-02  0.00D+00 EMaxC= 1.00D-01 BMatC= 1.79D-01 BMatP= 1.79D-01
 IDIUse=3 WtCom= 7.12D-01 WtEn= 2.88D-01
 Coeff-Com:  0.100D+01
 Coeff-En:   0.100D+01
 Coeff:      0.100D+01
 Gap=     0.012 Goal=   None    Shift=    0.000
 GapD=    0.012 DampG=0.250 DampE=0.500 DampFc=0.2500 IDamp=-1.
 Damping current iteration by 2.50D-01
 RMSDP=1.32D-02 MaxDP=2.59D-01              OVMax= 3.48D-01

 Cycle   2  Pass 0  IDiag  1:
 E= -283.763370777764     Delta-E=       -0.045103473669 Rises=F Damp=T
 DIIS: error= 9.39D-03 at cycle   2 NSaved=   2.
 NSaved= 2 IEnMin= 2 EnMin= -283.763370777764     IErMin= 2 ErrMin= 9.39D-03
 ErrMax= 9.39D-03  0.00D+00 EMaxC= 1.00D-01 BMatC= 1.86D-02 BMatP= 1.79D-01
 IDIUse=3 WtCom= 9.06D-01 WtEn= 9.39D-02
 Coeff-Com: -0.171D+00 0.117D+01
 Coeff-En:   0.189D+00 0.811D+00
 Coeff:     -0.137D+00 0.114D+01
 Gap=     0.048 Goal=   None    Shift=    0.000
 RMSDP=3.74D-03 MaxDP=7.48D-02 DE=-4.51D-02 OVMax= 2.80D-01

 Cycle   3  Pass 0  IDiag  1:
 E= -283.788052021000     Delta-E=       -0.024681243236 Rises=F Damp=F
 DIIS: error= 2.64D-02 at cycle   3 NSaved=   3.
 NSaved= 3 IEnMin= 3 EnMin= -283.788052021000     IErMin= 2 ErrMin= 9.39D-03
 ErrMax= 2.64D-02  0.00D+00 EMaxC= 1.00D-01 BMatC= 9.79D-02 BMatP= 1.86D-02
 IDIUse=2 WtCom= 0.00D+00 WtEn= 1.00D+00
 EnCoef did     5 forward-backward iterations
 Coeff-En:   0.558D-01 0.340D+00 0.605D+00
 Coeff:      0.558D-01 0.340D+00 0.605D+00
 Gap=     0.139 Goal=   None    Shift=    0.000
 RMSDP=7.65D-03 MaxDP=1.89D-01 DE=-2.47D-02 OVMax= 3.60D-01

 Cycle   4  Pass 0  IDiag  1:
 E= -283.552360663669     Delta-E=        0.235691357330 Rises=F Damp=F
 DIIS: error= 5.23D-02 at cycle   4 NSaved=   4.
 NSaved= 4 IEnMin= 3 EnMin= -283.788052021000     IErMin= 2 ErrMin= 9.39D-03
 ErrMax= 5.23D-02  0.00D+00 EMaxC= 1.00D-01 BMatC= 3.90D-01 BMatP= 1.86D-02
 IDIUse=2 WtCom= 0.00D+00 WtEn= 1.00D+00
 EnCoef did     2 forward-backward iterations
 Coeff-En:   0.852D-01 0.000D+00 0.648D+00 0.267D+00
 Coeff:      0.852D-01 0.000D+00 0.648D+00 0.267D+00
 Gap=     0.158 Goal=   None    Shift=    0.000
 RMSDP=4.48D-03 MaxDP=1.11D-01 DE= 2.36D-01 OVMax= 2.08D-01

 Cycle   5  Pass 0  IDiag  1:
 E= -283.854419674507     Delta-E=       -0.302059010838 Rises=F Damp=F
 DIIS: error= 1.16D-02 at cycle   5 NSaved=   5.
 NSaved= 5 IEnMin= 5 EnMin= -283.854419674507     IErMin= 2 ErrMin= 9.39D-03
 ErrMax= 1.16D-02  0.00D+00 EMaxC= 1.00D-01 BMatC= 2.11D-02 BMatP= 1.86D-02
 IDIUse=2 WtCom= 0.00D+00 WtEn= 1.00D+00
 Coeff-En:   0.000D+00 0.000D+00 0.239D+00 0.000D+00 0.761D+00
 Coeff:      0.000D+00 0.000D+00 0.239D+00 0.000D+00 0.761D+00
 Gap=     0.116 Goal=   None    Shift=    0.000
 RMSDP=1.94D-03 MaxDP=4.85D-02 DE=-3.02D-01 OVMax= 8.52D-02

 Cycle   6  Pass 0  IDiag  1:
 E= -283.863482601995     Delta-E=       -0.009062927488 Rises=F Damp=F
 DIIS: error= 7.60D-03 at cycle   6 NSaved=   6.
 NSaved= 6 IEnMin= 6 EnMin= -283.863482601995     IErMin= 6 ErrMin= 7.60D-03
 ErrMax= 7.60D-03  0.00D+00 EMaxC= 1.00D-01 BMatC= 1.02D-02 BMatP= 1.86D-02
 IDIUse=3 WtCom= 9.24D-01 WtEn= 7.60D-02
 Coeff-Com: -0.850D-01 0.136D+00 0.171D+00-0.469D-01 0.611D+00 0.213D+00
 Coeff-En:   0.000D+00 0.000D+00 0.000D+00 0.000D+00 0.366D+00 0.634D+00
 Coeff:     -0.786D-01 0.126D+00 0.158D+00-0.433D-01 0.592D+00 0.245D+00
 Gap=     0.129 Goal=   None    Shift=    0.000
 RMSDP=8.17D-04 MaxDP=2.25D-02 DE=-9.06D-03 OVMax= 3.15D-02

 Cycle   7  Pass 0  IDiag  1:
 E= -283.871574973826     Delta-E=       -0.008092371831 Rises=F Damp=F
 DIIS: error= 7.37D-04 at cycle   7 NSaved=   7.
 NSaved= 7 IEnMin= 7 EnMin= -283.871574973826     IErMin= 7 ErrMin= 7.37D-04
 ErrMax= 7.37D-04  0.00D+00 EMaxC= 1.00D-01 BMatC= 7.43D-05 BMatP= 1.02D-02
 IDIUse=3 WtCom= 9.93D-01 WtEn= 7.37D-03
 Coeff-Com: -0.392D-01 0.616D-01 0.549D-01-0.245D-01 0.267D+00 0.147D+00
 Coeff-Com:  0.533D+00
 Coeff-En:   0.000D+00 0.000D+00 0.000D+00 0.000D+00 0.000D+00 0.000D+00
 Coeff-En:   0.100D+01
 Coeff:     -0.389D-01 0.612D-01 0.545D-01-0.244D-01 0.265D+00 0.146D+00
 Coeff:      0.537D+00
 Gap=     0.129 Goal=   None    Shift=    0.000
 RMSDP=8.78D-05 MaxDP=2.36D-03 DE=-8.09D-03 OVMax= 2.27D-03

 Cycle   8  Pass 0  IDiag  1:
 E= -283.871635921751     Delta-E=       -0.000060947925 Rises=F Damp=F
 DIIS: error= 1.70D-04 at cycle   8 NSaved=   8.
 NSaved= 8 IEnMin= 8 EnMin= -283.871635921751     IErMin= 8 ErrMin= 1.70D-04
 ErrMax= 1.70D-04  0.00D+00 EMaxC= 1.00D-01 BMatC= 5.05D-06 BMatP= 7.43D-05
 IDIUse=3 WtCom= 9.98D-01 WtEn= 1.70D-03
 Coeff-Com: -0.630D-04-0.131D-02-0.410D-02-0.611D-03 0.194D-01 0.404D-01
 Coeff-Com:  0.267D+00 0.680D+00
 Coeff-En:   0.000D+00 0.000D+00 0.000D+00 0.000D+00 0.000D+00 0.000D+00
 Coeff-En:   0.000D+00 0.100D+01
 Coeff:     -0.629D-04-0.131D-02-0.409D-02-0.610D-03 0.194D-01 0.403D-01
 Coeff:      0.266D+00 0.680D+00
 Gap=     0.129 Goal=   None    Shift=    0.000
 RMSDP=2.05D-05 MaxDP=5.43D-04 DE=-6.09D-05 OVMax= 4.36D-04

 Cycle   9  Pass 0  IDiag  1:
 E= -283.871640432190     Delta-E=       -0.000004510439 Rises=F Damp=F
 DIIS: error= 2.04D-05 at cycle   9 NSaved=   9.
 NSaved= 9 IEnMin= 9 EnMin= -283.871640432190     IErMin= 9 ErrMin= 2.04D-05
 ErrMax= 2.04D-05  0.00D+00 EMaxC= 1.00D-01 BMatC= 5.70D-08 BMatP= 5.05D-06
 IDIUse=1 WtCom= 1.00D+00 WtEn= 0.00D+00
 Coeff-Com:  0.306D-03-0.109D-02-0.221D-02 0.655D-05 0.547D-02 0.147D-01
 Coeff-Com:  0.985D-01 0.266D+00 0.619D+00
 Coeff:      0.306D-03-0.109D-02-0.221D-02 0.655D-05 0.547D-02 0.147D-01
 Coeff:      0.985D-01 0.266D+00 0.619D+00
 Gap=     0.129 Goal=   None    Shift=    0.000
 RMSDP=3.85D-06 MaxDP=5.28D-05 DE=-4.51D-06 OVMax= 8.42D-05

 Initial convergence to 1.0D-05 achieved.  Increase integral accuracy.
 Cycle  10  Pass 1  IDiag  1:
 E= -283.871613057664     Delta-E=        0.000027374526 Rises=F Damp=F
 DIIS: error= 9.97D-06 at cycle   1 NSaved=   1.
 NSaved= 1 IEnMin= 1 EnMin= -283.871613057664     IErMin= 1 ErrMin= 9.97D-06
 ErrMax= 9.97D-06  0.00D+00 EMaxC= 1.00D-01 BMatC= 1.57D-08 BMatP= 1.57D-08
 IDIUse=1 WtCom= 1.00D+00 WtEn= 0.00D+00
 Coeff-Com:  0.100D+01
 Coeff:      0.100D+01
 Gap=     0.129 Goal=   None    Shift=    0.000
 RMSDP=3.85D-06 MaxDP=5.28D-05 DE= 2.74D-05 OVMax= 7.97D-05

 Cycle  11  Pass 1  IDiag  1:
 E= -283.871613051747     Delta-E=        0.000000005917 Rises=F Damp=F
 DIIS: error= 1.37D-05 at cycle   2 NSaved=   2.
 NSaved= 2 IEnMin= 1 EnMin= -283.871613057664     IErMin= 1 ErrMin= 9.97D-06
 ErrMax= 1.37D-05  0.00D+00 EMaxC= 1.00D-01 BMatC= 2.96D-08 BMatP= 1.57D-08
 IDIUse=1 WtCom= 1.00D+00 WtEn= 0.00D+00
 Coeff-Com:  0.596D+00 0.404D+00
 Coeff:      0.596D+00 0.404D+00
 Gap=     0.129 Goal=   None    Shift=    0.000
 RMSDP=2.10D-06 MaxDP=4.61D-05 DE= 5.92D-09 OVMax= 9.97D-05

 Cycle  12  Pass 1  IDiag  1:
 E= -283.871613068066     Delta-E=       -0.000000016319 Rises=F Damp=F
 DIIS: error= 9.10D-06 at cycle   3 NSaved=   3.
 NSaved= 3 IEnMin= 3 EnMin= -283.871613068066     IErMin= 3 ErrMin= 9.10D-06
 ErrMax= 9.10D-06  0.00D+00 EMaxC= 1.00D-01 BMatC= 1.04D-08 BMatP= 1.57D-08
 IDIUse=1 WtCom= 1.00D+00 WtEn= 0.00D+00
 Coeff-Com:  0.259D+00 0.329D+00 0.412D+00
 Coeff:      0.259D+00 0.329D+00 0.412D+00
 Gap=     0.129 Goal=   None    Shift=    0.000
 RMSDP=1.22D-06 MaxDP=3.39D-05 DE=-1.63D-08 OVMax= 5.85D-05

 Cycle  13  Pass 1  IDiag  1:
 E= -283.871613074943     Delta-E=       -0.000000006877 Rises=F Damp=F
 DIIS: error= 3.86D-06 at cycle   4 NSaved=   4.
 NSaved= 4 IEnMin= 4 EnMin= -283.871613074943     IErMin= 4 ErrMin= 3.86D-06
 ErrMax= 3.86D-06  0.00D+00 EMaxC= 1.00D-01 BMatC= 1.83D-09 BMatP= 1.04D-08
 IDIUse=1 WtCom= 1.00D+00 WtEn= 0.00D+00
 Coeff-Com:  0.174D-01 0.130D+00 0.327D+00 0.526D+00
 Coeff:      0.174D-01 0.130D+00 0.327D+00 0.526D+00
 Gap=     0.129 Goal=   None    Shift=    0.000
 RMSDP=4.57D-07 MaxDP=1.15D-05 DE=-6.88D-09 OVMax= 1.54D-05

 Cycle  14  Pass 1  IDiag  1:
 E= -283.871613076356     Delta-E=       -0.000000001413 Rises=F Damp=F
 DIIS: error= 8.62D-07 at cycle   5 NSaved=   5.
 NSaved= 5 IEnMin= 5 EnMin= -283.871613076356     IErMin= 5 ErrMin= 8.62D-07
 ErrMax= 8.62D-07  0.00D+00 EMaxC= 1.00D-01 BMatC= 1.23D-10 BMatP= 1.83D-09
 IDIUse=1 WtCom= 1.00D+00 WtEn= 0.00D+00
 Coeff-Com: -0.197D-02 0.692D-01 0.195D+00 0.353D+00 0.385D+00
 Coeff:     -0.197D-02 0.692D-01 0.195D+00 0.353D+00 0.385D+00
 Gap=     0.129 Goal=   None    Shift=    0.000
 RMSDP=9.77D-08 MaxDP=2.69D-06 DE=-1.41D-09 OVMax= 3.16D-06

 Cycle  15  Pass 1  IDiag  1:
 E= -283.871613076463     Delta-E=       -0.000000000107 Rises=F Damp=F
 DIIS: error= 1.10D-07 at cycle   6 NSaved=   6.
 NSaved= 6 IEnMin= 6 EnMin= -283.871613076463     IErMin= 6 ErrMin= 1.10D-07
 ErrMax= 1.10D-07  0.00D+00 EMaxC= 1.00D-01 BMatC= 3.13D-12 BMatP= 1.23D-10
 IDIUse=1 WtCom= 1.00D+00 WtEn= 0.00D+00
 Coeff-Com: -0.163D-02 0.336D-01 0.936D-01 0.176D+00 0.219D+00 0.479D+00
 Coeff:     -0.163D-02 0.336D-01 0.936D-01 0.176D+00 0.219D+00 0.479D+00
 Gap=     0.129 Goal=   None    Shift=    0.000
 RMSDP=1.91D-08 MaxDP=3.41D-07 DE=-1.07D-10 OVMax= 4.34D-07

 Cycle  16  Pass 1  IDiag  1:
 E= -283.871613076467     Delta-E=       -0.000000000004 Rises=F Damp=F
 DIIS: error= 3.56D-08 at cycle   7 NSaved=   7.
 NSaved= 7 IEnMin= 7 EnMin= -283.871613076467     IErMin= 7 ErrMin= 3.56D-08
 ErrMax= 3.56D-08  0.00D+00 EMaxC= 1.00D-01 BMatC= 3.24D-13 BMatP= 3.13D-12
 IDIUse=1 WtCom= 1.00D+00 WtEn= 0.00D+00
 Coeff-Com: -0.612D-03 0.106D-01 0.284D-01 0.568D-01 0.796D-01 0.280D+00
 Coeff-Com:  0.545D+00
 Coeff:     -0.612D-03 0.106D-01 0.284D-01 0.568D-01 0.796D-01 0.280D+00
 Coeff:      0.545D+00
 Gap=     0.129 Goal=   None    Shift=    0.000
 RMSDP=5.53D-09 MaxDP=1.24D-07 DE=-3.87D-12 OVMax= 1.45D-07

 SCF Done:  E(RPBE-PBE) =  -283.871613076     A.U. after   16 cycles
            NFock= 16  Conv=0.55D-08     -V/T= 2.0087
 KE= 2.814176726035D+02 PE=-1.019069667502D+03 EE= 2.770206464377D+02
 Leave Link  502 at Fri Sep 11 13:30:36 2015, MaxMem=    33554432 cpu:        23.6
 (Enter /usr/local/research/Gaussian09/g09-revD.01/g09/l508.exe)
 QCSCF skips out because SCF is already converged.
 Leave Link  508 at Fri Sep 11 13:30:36 2015, MaxMem=    33554432 cpu:         0.0
 (Enter /usr/local/research/Gaussian09/g09-revD.01/g09/l601.exe)
 Copying SCF densities to generalized density rwf, IOpCl= 0 IROHF=0.

 **********************************************************************

            Population analysis using the SCF density.

 **********************************************************************

 Orbital symmetries:
       Occupied  (A) (A) (A) (A) (A) (A) (A) (A) (A) (A) (A) (A)
                 (A) (A) (A) (A) (A) (A) (A) (A)
       Virtual   (A) (A) (A) (A) (A) (A) (A) (A) (A) (A) (A) (A)
                 (A) (A) (A) (A) (A) (A) (A) (A) (A) (A) (A) (A)
                 (A) (A) (A) (A) (A) (A) (A) (A) (A) (A) (A) (A)
                 (A) (A) (A) (A) (A) (A) (A) (A) (A) (A) (A) (A)
                 (A) (A) (A) (A) (A) (A) (A) (A) (A) (A) (A) (A)
                 (A) (A) (A) (A) (A) (A) (A) (A) (A) (A) (A) (A)
                 (A) (A) (A)
 The electronic state is 1-A.
 Alpha  occ. eigenvalues --  -18.80575 -18.74793 -13.96856 -10.02749  -9.93877
 Alpha  occ. eigenvalues --   -0.97802  -0.89769  -0.80577  -0.63163  -0.55487
 Alpha  occ. eigenvalues --   -0.47582  -0.42353  -0.41964  -0.39694  -0.36788
 Alpha  occ. eigenvalues --   -0.34853  -0.33456  -0.27224  -0.22499  -0.17956
 Alpha virt. eigenvalues --   -0.05091   0.01437   0.05118   0.08265   0.11079
 Alpha virt. eigenvalues --    0.11904   0.13889   0.18782   0.23245   0.27415
 Alpha virt. eigenvalues --    0.38233   0.43688   0.44464   0.46505   0.52271
 Alpha virt. eigenvalues --    0.54318   0.55251   0.56788   0.58603   0.62225
 Alpha virt. eigenvalues --    0.62785   0.67903   0.72796   0.75482   0.79618
 Alpha virt. eigenvalues --    0.80803   0.89437   0.91134   0.94366   1.02274
 Alpha virt. eigenvalues --    1.05536   1.12435   1.14768   1.17281   1.19045
 Alpha virt. eigenvalues --    1.33399   1.35930   1.47244   1.47992   1.50947
 Alpha virt. eigenvalues --    1.55730   1.56095   1.59516   1.68618   1.69763
 Alpha virt. eigenvalues --    1.72884   1.75902   1.77726   1.82897   1.89174
 Alpha virt. eigenvalues --    1.99325   2.07907   2.09189   2.16049   2.20348
 Alpha virt. eigenvalues --    2.21645   2.30225   2.36294   2.54119   2.57854
 Alpha virt. eigenvalues --    2.60269   2.61671   2.75379   2.77148   2.79390
 Alpha virt. eigenvalues --    2.81367   2.85075   2.97488   3.02409   3.03742
 Alpha virt. eigenvalues --    3.14658   3.31650   3.38712   3.46641   3.64976
          Condensed to atoms (all electrons):
               1          2          3          4          5          6
     1  N    6.286369   0.311648   0.370967   0.344291  -0.019050  -0.031234
     2  C    0.311648   4.896338  -0.047749  -0.007056   0.257793   0.353389
     3  H    0.370967  -0.047749   0.572046  -0.021674  -0.016291  -0.002311
     4  H    0.344291  -0.007056  -0.021674   0.586984   0.005472  -0.009988
     5  C   -0.019050   0.257793  -0.016291   0.005472   4.703207  -0.010987
     6  H   -0.031234   0.353389  -0.002311  -0.009988  -0.010987   0.684447
     7  H   -0.033836   0.346568   0.010190  -0.003017   0.008444  -0.031750
     8  O    0.002614  -0.085556   0.000647  -0.000269   0.627688   0.003102
     9  O    0.003040  -0.110553   0.022415  -0.000012   0.352410   0.002108
    10  H   -0.000923   0.016793  -0.001457   0.000071  -0.003847  -0.000434
               7          8          9         10
     1  N   -0.033836   0.002614   0.003040  -0.000923
     2  C    0.346568  -0.085556  -0.110553   0.016793
     3  H    0.010190   0.000647   0.022415  -0.001457
     4  H   -0.003017  -0.000269  -0.000012   0.000071
     5  C    0.008444   0.627688   0.352410  -0.003847
     6  H   -0.031750   0.003102   0.002108  -0.000434
     7  H    0.642135   0.001659   0.001892  -0.000422
     8  O    0.001659   7.742157  -0.071328   0.010595
     9  O    0.001892  -0.071328   7.700688   0.296223
    10  H   -0.000422   0.010595   0.296223   0.505078
 Mulliken charges:
               1
     1  N   -0.233885
     2  C    0.068386
     3  H    0.113216
     4  H    0.105198
     5  C    0.095161
     6  H    0.043658
     7  H    0.058135
     8  O   -0.231309
     9  O   -0.196884
    10  H    0.178323
 Sum of Mulliken charges =   0.00000
 Mulliken charges with hydrogens summed into heavy atoms:
               1
     1  N   -0.015471
     2  C    0.170179
     5  C    0.095161
     8  O   -0.231309
     9  O   -0.018561
 Electronic spatial extent (au):  <R**2>=            422.0114
 Charge=              0.0000 electrons
 Dipole moment (field-independent basis, Debye):
    X=             -1.2612    Y=              0.6381    Z=              0.8699  Tot=              1.6597
 Quadrupole moment (field-independent basis, Debye-Ang):
   XX=            -27.7670   YY=            -29.1083   ZZ=            -29.4036
   XY=              7.2218   XZ=             -1.8406   YZ=              1.2986
 Traceless Quadrupole moment (field-independent basis, Debye-Ang):
   XX=              0.9926   YY=             -0.3487   ZZ=             -0.6439
   XY=              7.2218   XZ=             -1.8406   YZ=              1.2986
 Octapole moment (field-independent basis, Debye-Ang**2):
  XXX=             -4.6601  YYY=              6.7173  ZZZ=              0.5716  XYY=              2.2615
  XXY=              7.9134  XXZ=              2.8926  XZZ=              2.8217  YZZ=             -0.2939
  YYZ=              0.6975  XYZ=             -1.7946
 Hexadecapole moment (field-independent basis, Debye-Ang**3):
 XXXX=           -278.5589 YYYY=           -147.8976 ZZZZ=            -32.9711 XXXY=             31.0797
 XXXZ=             -6.6680 YYYX=             10.9953 YYYZ=              1.8769 ZZZX=             -1.3104
 ZZZY=              0.9725 XXYY=            -67.5956 XXZZ=            -60.1035 YYZZ=            -29.5688
 XXYZ=              2.9634 YYXZ=             -1.6113 ZZXY=              1.5151
 N-N= 1.767597353844D+02 E-N=-1.019069662595D+03  KE= 2.814176726035D+02
 No NMR shielding tensors so no spin-rotation constants.
 Leave Link  601 at Fri Sep 11 13:30:37 2015, MaxMem=    33554432 cpu:         0.2
 (Enter /usr/local/research/Gaussian09/g09-revD.01/g09/l701.exe)
 Compute integral first derivatives.
 ... and contract with generalized density number  0.
   1 Symmetry operations used in ECPInt.
 ECPInt:  NShTT=    1035 NPrTT=    3735 LenC2=    1033 LenP2D=    3183.
 LDataN:  DoStor=T MaxTD1= 5 Len=  102
 Leave Link  701 at Fri Sep 11 13:30:37 2015, MaxMem=    33554432 cpu:         0.3
 (Enter /usr/local/research/Gaussian09/g09-revD.01/g09/l702.exe)
 L702 exits ... SP integral derivatives will be done elsewhere.
 Leave Link  702 at Fri Sep 11 13:30:37 2015, MaxMem=    33554432 cpu:         0.1
 (Enter /usr/local/research/Gaussian09/g09-revD.01/g09/l703.exe)
 Compute integral first derivatives, UseDBF=F ICtDFT=           0.
 Integral derivatives from FoFJK, PRISM(SPDF).
 Calling FoFJK, ICntrl=      2527 FMM=F ISym2X=0 I1Cent= 0 IOpClX= 0 NMat=1 NMatS=1 NMatT=0.
 FoFJK:  IHMeth= 1 ICntrl=    2527 DoSepK=F KAlg= 0 I1Cent=   0 FoldK=F
 IRaf=         0 NMat=   1 IRICut=       1 DoRegI=T DoRafI=F ISym2E= 0.
 FoFCou: FMM=F IPFlag=           0 FMFlag=      100000 FMFlg1=         800
         NFxFlg=           0 DoJE=F BraDBF=F KetDBF=F FulRan=T
         wScrn=  0.000000 ICntrl=    2527 IOpCl=  0 I1Cent=           0 NGrid=           0
         NMat0=    1 NMatS0=      1 NMatT0=    0 NMatD0=    1 NMtDS0=    0 NMtDT0=    0
 Symmetry not used in FoFCou.
 Leave Link  703 at Fri Sep 11 13:30:44 2015, MaxMem=    33554432 cpu:         7.3
 (Enter /usr/local/research/Gaussian09/g09-revD.01/g09/l716.exe)
 Dipole        =-4.96190371D-01 2.51031624D-01 3.42244653D-01
 ***** Axes restored to original set *****
 -------------------------------------------------------------------
 Center     Atomic                   Forces (Hartrees/Bohr)
 Number     Number              X              Y              Z
 -------------------------------------------------------------------
      1        7          -0.014846861    0.027688521    0.035172325
      2        6           0.039881299   -0.010332070   -0.000394422
      3        1           0.014789821   -0.022732598   -0.018873939
      4        1           0.010451541   -0.024918568   -0.016130412
      5        6          -0.005071875    0.079667183    0.003711525
      6        1          -0.013050738    0.014045665   -0.006816740
      7        1          -0.008933111    0.007713033    0.005369761
      8        8           0.029849430   -0.053033948   -0.000465226
      9        8          -0.051060761   -0.038899722   -0.001006114
     10        1          -0.002008746    0.020802504   -0.000566758
 -------------------------------------------------------------------
 Cartesian Forces:  Max     0.079667183 RMS     0.026604861
 Leave Link  716 at Fri Sep 11 13:30:44 2015, MaxMem=    33554432 cpu:         0.0
 (Enter /usr/local/research/Gaussian09/g09-revD.01/g09/l103.exe)

 GradGradGradGradGradGradGradGradGradGradGradGradGradGradGradGradGradGrad
 Berny optimization.
 FormGI is forming the generalized inverse of G from B-inverse, IUseBI=4.
 Internal  Forces:  Max     0.060744063 RMS     0.018827355
 Search for a local minimum.
 Step number   1 out of a maximum of   46
 All quantities printed in internal units (Hartrees-Bohrs-Radians)
 RMS Force = .18827D-01 SwitMx=.10000D-02 MixMth= 1
 Mixed Optimization -- RFO/linear search
 Second derivative matrix not updated -- first step.
 ITU=  0
     Eigenvalues ---    0.00475   0.00680   0.01044   0.01295   0.03819
     Eigenvalues ---    0.05394   0.06695   0.09577   0.13021   0.16000
     Eigenvalues ---    0.16000   0.16000   0.22088   0.25000   0.25000
     Eigenvalues ---    0.30177   0.33995   0.33995   0.38376   0.40990
     Eigenvalues ---    0.47558   0.47558   0.55477   0.80212
 RFO step:  Lambda=-3.73987574D-02 EMin= 4.75244460D-03
 Linear search not attempted -- first point.
 Maximum step size (   0.300) exceeded in Quadratic search.
    -- Step size scaled by   0.827
 Iteration  1 RMS(Cart)=  0.07877983 RMS(Int)=  0.00328848
 Iteration  2 RMS(Cart)=  0.00307497 RMS(Int)=  0.00137150
 Iteration  3 RMS(Cart)=  0.00000851 RMS(Int)=  0.00137149
 Iteration  4 RMS(Cart)=  0.00000003 RMS(Int)=  0.00137149
 ITry= 1 IFail=0 DXMaxC= 2.33D-01 DCOld= 1.00D+10 DXMaxT= 3.00D-01 DXLimC= 3.00D+00 Rises=F
 Variable       Old X    -DE/DX   Delta X   Delta X   Delta X     New X
                                 (Linear)    (Quad)   (Total)
    R1        2.73821   0.02229   0.00000   0.04375   0.04375   2.78196
    R2        1.89113   0.01610   0.00000   0.02595   0.02595   1.91708
    R3        1.89113   0.01448   0.00000   0.02334   0.02334   1.91447
    R4        2.87612  -0.00880   0.00000  -0.02146  -0.02146   2.85466
    R5        2.07339   0.01307   0.00000   0.02863   0.02863   2.10201
    R6        2.07339   0.00952   0.00000   0.02086   0.02086   2.09424
    R7        2.37802  -0.06074   0.00000  -0.05982  -0.05982   2.31820
    R8        2.70230  -0.05163   0.00000  -0.09543  -0.09543   2.60687
    R9        1.81411   0.01825   0.00000   0.02549   0.02549   1.83959
    A1        1.84166   0.02525   0.00000   0.10060   0.09798   1.93964
    A2        1.84166   0.02465   0.00000   0.09810   0.09549   1.93714
    A3        2.27886  -0.03228   0.00000  -0.14372  -0.14747   2.13139
    A4        1.92684   0.01278   0.00000   0.04776   0.04752   1.97437
    A5        1.90966   0.00935   0.00000   0.06983   0.07012   1.97978
    A6        1.90966   0.00070   0.00000   0.01665   0.01725   1.92691
    A7        1.89511  -0.01199   0.00000  -0.05487  -0.05741   1.83770
    A8        1.89511  -0.00828   0.00000  -0.04666  -0.04777   1.84733
    A9        1.92745  -0.00270   0.00000  -0.03400  -0.03725   1.89020
   A10        2.09438   0.01942   0.00000   0.05587   0.05577   2.15016
   A11        2.09439  -0.03003   0.00000  -0.08637  -0.08647   2.00793
   A12        2.09441   0.01060   0.00000   0.03050   0.03040   2.12481
   A13        1.91113  -0.01846   0.00000  -0.07732  -0.07732   1.83381
    D1       -0.56822  -0.00205   0.00000  -0.02933  -0.02918  -0.59740
    D2        1.51645  -0.00311   0.00000  -0.02382  -0.02219   1.49426
    D3       -2.65289  -0.00015   0.00000  -0.01166  -0.01093  -2.66382
    D4       -3.02989   0.00079   0.00000   0.00170   0.00017  -3.02972
    D5       -0.94522  -0.00027   0.00000   0.00720   0.00716  -0.93806
    D6        1.16862   0.00268   0.00000   0.01937   0.01842   1.18704
    D7        3.14159   0.00251   0.00000   0.01567   0.01534  -3.12625
    D8        0.00000   0.00386   0.00000   0.04100   0.04076   0.04076
    D9        1.04814  -0.00917   0.00000  -0.06446  -0.06248   0.98566
   D10       -2.09346  -0.00782   0.00000  -0.03914  -0.03705  -2.13051
   D11       -1.04814   0.00591   0.00000   0.03577   0.03397  -1.01416
   D12        2.09346   0.00726   0.00000   0.06110   0.05940   2.15285
   D13        3.14159  -0.00116   0.00000  -0.02062  -0.02047   3.12112
   D14        0.00000   0.00019   0.00000   0.00470   0.00455   0.00455
         Item               Value     Threshold  Converged?
 Maximum Force            0.060744     0.000450     NO 
 RMS     Force            0.018827     0.000300     NO 
 Maximum Displacement     0.232538     0.001800     NO 
 RMS     Displacement     0.079433     0.001200     NO 
 Predicted change in Energy=-2.001580D-02
 Lowest energy point so far.  Saving SCF results.
 GradGradGradGradGradGradGradGradGradGradGradGradGradGradGradGradGradGrad

 Leave Link  103 at Fri Sep 11 13:30:44 2015, MaxMem=    33554432 cpu:         0.0
 (Enter /usr/local/research/Gaussian09/g09-revD.01/g09/l202.exe)
                          Input orientation:                          
 ---------------------------------------------------------------------
 Center     Atomic      Atomic             Coordinates (Angstroms)
 Number     Number       Type             X           Y           Z
 ---------------------------------------------------------------------
      1          7           0        0.055270   -1.936376    0.004622
      2          6           0       -0.774763   -0.720584   -0.006554
      3          1           0        0.917469   -1.795361   -0.511024
      4          1           0       -0.514241   -2.765700   -0.114707
      5          6           0        0.037850    0.552694    0.013340
      6          1           0       -1.426889   -0.638426   -0.903925
      7          1           0       -1.417641   -0.683363    0.895380
      8          8           0       -0.466205    1.671043    0.023682
      9          8           0        1.405375    0.373191   -0.012561
     10          1           0        1.778661    1.272245   -0.014637
 ---------------------------------------------------------------------
                    Distance matrix (angstroms):
                    1          2          3          4          5
     1  N    0.000000
     2  C    1.472151   0.000000
     3  H    1.014477   2.067192   0.000000
     4  H    1.013095   2.064478   1.774378   0.000000
     5  C    2.489145   1.510619   2.561649   3.366443   0.000000
     6  H    2.169545   1.112337   2.643650   2.445626   2.098953
     7  H    2.129074   1.108225   2.944019   2.484459   2.103399
     8  O    3.644964   2.411638   3.770467   4.439160   1.226737
     9  O    2.675291   2.439136   2.277968   3.680761   1.379499
    10  H    3.642210   3.239044   3.224633   4.644611   1.883868
                    6          7          8          9         10
     6  H    0.000000
     7  H    1.799890   0.000000
     8  O    2.667773   2.684831   0.000000
     9  O    3.136817   3.148029   2.277838   0.000000
    10  H    3.836281   3.856019   2.280336   0.973470   0.000000
 Stoichiometry    C2H5NO2
 Framework group  C1[X(C2H5NO2)]
 Deg. of freedom    24
 Full point group                 C1      NOp   1
 RotChk:  IX=0 Diff= 7.93D-02
 Largest Abelian subgroup         C1      NOp   1
 Largest concise Abelian subgroup C1      NOp   1
                         Standard orientation:                         
 ---------------------------------------------------------------------
 Center     Atomic      Atomic             Coordinates (Angstroms)
 Number     Number       Type             X           Y           Z
 ---------------------------------------------------------------------
      1          7           0       -1.853185    0.210189   -0.060407
      2          6           0       -0.747758   -0.760162    0.000256
      3          1           0       -1.618966    1.062984    0.436630
      4          1           0       -2.747831   -0.251304    0.053580
      5          6           0        0.614976   -0.108378   -0.009984
      6          1           0       -0.763755   -1.392273    0.915391
      7          1           0       -0.770580   -1.427610   -0.884140
      8          8           0        1.663756   -0.744083    0.018698
      9          8           0        0.602506    1.271006   -0.022637
     10          1           0        1.540031    1.532729   -0.008724
 ---------------------------------------------------------------------
 Rotational constants (GHZ):      9.7790573      4.0412761      2.9217059
 Leave Link  202 at Fri Sep 11 13:30:44 2015, MaxMem=    33554432 cpu:         0.0
 (Enter /usr/local/research/Gaussian09/g09-revD.01/g09/l301.exe)
 Standard basis: def2SVP (5D, 7F)
 Ernie: Thresh=  0.10000D-02 Tol=  0.10000D-05 Strict=F.
 There are   100 symmetry adapted cartesian basis functions of A   symmetry.
 There are    95 symmetry adapted basis functions of A   symmetry.
    95 basis functions,   160 primitive gaussians,   100 cartesian basis functions
    20 alpha electrons       20 beta electrons
       nuclear repulsion energy       178.3159428396 Hartrees.
 IExCor= 1009 DFT=T Ex=PBE Corr=PBE ExCW=0 ScaHFX=  0.000000
 ScaDFX=  1.000000  1.000000  1.000000  1.000000 ScalE2=  1.000000  1.000000
 IRadAn=      0 IRanWt=     -1 IRanGd=            0 ICorTp=0 IEmpDi=  4
 NAtoms=   10 NActive=   10 NUniq=   10 SFac= 1.00D+00 NAtFMM=   60 NAOKFM=F Big=F
 Integral buffers will be    131072 words long.
 Raffenetti 2 integral format.
 Two-electron integral symmetry is turned on.
 Leave Link  301 at Fri Sep 11 13:30:45 2015, MaxMem=    33554432 cpu:         0.1
 (Enter /usr/local/research/Gaussian09/g09-revD.01/g09/l302.exe)
 NPDir=0 NMtPBC=     1 NCelOv=     1 NCel=       1 NClECP=     1 NCelD=      1
         NCelK=      1 NCelE2=     1 NClLst=     1 CellRange=     0.0.
 One-electron integrals computed using PRISM.
   1 Symmetry operations used in ECPInt.
 ECPInt:  NShTT=    1035 NPrTT=    3735 LenC2=    1033 LenP2D=    3185.
 LDataN:  DoStor=T MaxTD1= 4 Len=   56
 NBasis=    95 RedAO= T EigKep=  2.33D-03  NBF=    95
 NBsUse=    95 1.00D-06 EigRej= -1.00D+00 NBFU=    95
 Precomputing XC quadrature grid using
 IXCGrd= 4 IRadAn=           0 IRanWt=          -1 IRanGd=           0 AccXCQ= 0.00D+00.
 Generated NRdTot=       0 NPtTot=           0 NUsed=           0 NTot=          32
 NSgBfM=   100   100   100   100   100 MxSgAt=    10 MxSgA2=    10.
 Leave Link  302 at Fri Sep 11 13:30:45 2015, MaxMem=    33554432 cpu:         0.5
 (Enter /usr/local/research/Gaussian09/g09-revD.01/g09/l303.exe)
 DipDrv:  MaxL=1.
 Leave Link  303 at Fri Sep 11 13:30:45 2015, MaxMem=    33554432 cpu:         0.1
 (Enter /usr/local/research/Gaussian09/g09-revD.01/g09/l401.exe)
 Initial guess from the checkpoint file:  "5-gct.chk"
 B after Tr=     0.000000    0.000000    0.000000
         Rot=    0.999565    0.001802    0.000061   -0.029440 Ang=   3.38 deg.
 Guess basis will be translated and rotated to current coordinates.
 JPrj=2 DoOrth=T DoCkMO=T.
 Generating alternative initial guess.
 ExpMin= 1.22D-01 ExpMax= 2.27D+03 ExpMxC= 3.41D+02 IAcc=1 IRadAn=         1 AccDes= 0.00D+00
 Harris functional with IExCor= 1009 and IRadAn=       1 diagonalized for initial guess.
 HarFok:  IExCor= 1009 AccDes= 0.00D+00 IRadAn=         1 IDoV= 1 UseB2=F ITyADJ=14
 ICtDFT=  3500011 ScaDFX=  1.000000  1.000000  1.000000  1.000000
 FoFCou: FMM=F IPFlag=           0 FMFlag=      100000 FMFlg1=           0
         NFxFlg=           0 DoJE=T BraDBF=F KetDBF=T FulRan=T
         wScrn=  0.000000 ICntrl=     500 IOpCl=  0 I1Cent=   200000004 NGrid=           0
         NMat0=    1 NMatS0=      1 NMatT0=    0 NMatD0=    1 NMtDS0=    0 NMtDT0=    0
 Petite list used in FoFCou.
 Harris En= -283.966421295873    
 Leave Link  401 at Fri Sep 11 13:30:46 2015, MaxMem=    33554432 cpu:         1.0
 (Enter /usr/local/research/Gaussian09/g09-revD.01/g09/l502.exe)
 Closed shell SCF:
 Using DIIS extrapolation, IDIIS=  1040.
 Integral symmetry usage will be decided dynamically.
 Keep J ints in memory in canonical form, NReq=11359554.
 IVT=       37302 IEndB=       37302 NGot=    33554432 MDV=    23118051
 LenX=    23118051 LenY=    23107610
 Requested convergence on RMS density matrix=1.00D-08 within  64 cycles.
 Requested convergence on MAX density matrix=1.00D-06.
 Requested convergence on             energy=1.00D-06.
 No special actions if energy rises.
 FoFCou: FMM=F IPFlag=           0 FMFlag=           0 FMFlg1=           0
         NFxFlg=           0 DoJE=F BraDBF=F KetDBF=F FulRan=T
         wScrn=  0.000000 ICntrl=     600 IOpCl=  0 I1Cent=           0 NGrid=           0
         NMat0=    1 NMatS0=   4560 NMatT0=    0 NMatD0=    1 NMtDS0=    0 NMtDT0=    0
 Symmetry not used in FoFCou.
 Integral accuracy reduced to 1.0D-05 until final iterations.

 Cycle   1  Pass 0  IDiag  1:
 E= -283.886450893504    
 DIIS: error= 4.01D-03 at cycle   1 NSaved=   1.
 NSaved= 1 IEnMin= 1 EnMin= -283.886450893504     IErMin= 1 ErrMin= 4.01D-03
 ErrMax= 4.01D-03  0.00D+00 EMaxC= 1.00D-01 BMatC= 4.61D-03 BMatP= 4.61D-03
 IDIUse=3 WtCom= 9.60D-01 WtEn= 4.01D-02
 Coeff-Com:  0.100D+01
 Coeff-En:   0.100D+01
 Coeff:      0.100D+01
 Gap=     0.492 Goal=   None    Shift=    0.000
 GapD=    0.492 DampG=2.000 DampE=1.000 DampFc=2.0000 IDamp=-1.
 RMSDP=1.40D-03 MaxDP=1.53D-02              OVMax= 2.55D-02

 Cycle   2  Pass 0  IDiag  1:
 E= -283.890512132996     Delta-E=       -0.004061239492 Rises=F Damp=F
 DIIS: error= 3.41D-03 at cycle   2 NSaved=   2.
 NSaved= 2 IEnMin= 2 EnMin= -283.890512132996     IErMin= 2 ErrMin= 3.41D-03
 ErrMax= 3.41D-03  0.00D+00 EMaxC= 1.00D-01 BMatC= 1.33D-03 BMatP= 4.61D-03
 IDIUse=3 WtCom= 9.66D-01 WtEn= 3.41D-02
 Coeff-Com:  0.271D+00 0.729D+00
 Coeff-En:   0.000D+00 0.100D+01
 Coeff:      0.261D+00 0.739D+00
 Gap=     0.151 Goal=   None    Shift=    0.000
 RMSDP=9.34D-04 MaxDP=2.24D-02 DE=-4.06D-03 OVMax= 4.21D-02

 Cycle   3  Pass 0  IDiag  1:
 E= -283.888049052560     Delta-E=        0.002463080436 Rises=F Damp=F
 DIIS: error= 6.26D-03 at cycle   3 NSaved=   3.
 NSaved= 3 IEnMin= 2 EnMin= -283.890512132996     IErMin= 2 ErrMin= 3.41D-03
 ErrMax= 6.26D-03  0.00D+00 EMaxC= 1.00D-01 BMatC= 4.42D-03 BMatP= 1.33D-03
 IDIUse=3 WtCom= 1.12D-01 WtEn= 8.88D-01
 Coeff-Com:  0.540D-01 0.623D+00 0.323D+00
 Coeff-En:   0.000D+00 0.697D+00 0.303D+00
 Coeff:      0.606D-02 0.689D+00 0.305D+00
 Gap=     0.148 Goal=   None    Shift=    0.000
 RMSDP=5.30D-04 MaxDP=1.36D-02 DE= 2.46D-03 OVMax= 2.57D-02

 Cycle   4  Pass 0  IDiag  1:
 E= -283.891490930545     Delta-E=       -0.003441877985 Rises=F Damp=F
 DIIS: error= 9.65D-04 at cycle   4 NSaved=   4.
 NSaved= 4 IEnMin= 4 EnMin= -283.891490930545     IErMin= 4 ErrMin= 9.65D-04
 ErrMax= 9.65D-04  0.00D+00 EMaxC= 1.00D-01 BMatC= 1.70D-04 BMatP= 1.33D-03
 IDIUse=3 WtCom= 9.90D-01 WtEn= 9.65D-03
 Coeff-Com:  0.566D-02 0.383D+00 0.154D+00 0.457D+00
 Coeff-En:   0.000D+00 0.119D+00 0.000D+00 0.881D+00
 Coeff:      0.560D-02 0.381D+00 0.152D+00 0.461D+00
 Gap=     0.145 Goal=   None    Shift=    0.000
 RMSDP=1.42D-04 MaxDP=4.46D-03 DE=-3.44D-03 OVMax= 3.11D-03

 Cycle   5  Pass 0  IDiag  1:
 E= -283.891646419374     Delta-E=       -0.000155488829 Rises=F Damp=F
 DIIS: error= 2.11D-04 at cycle   5 NSaved=   5.
 NSaved= 5 IEnMin= 5 EnMin= -283.891646419374     IErMin= 5 ErrMin= 2.11D-04
 ErrMax= 2.11D-04  0.00D+00 EMaxC= 1.00D-01 BMatC= 7.46D-06 BMatP= 1.70D-04
 IDIUse=3 WtCom= 9.98D-01 WtEn= 2.11D-03
 Coeff-Com:  0.145D-02 0.203D+00 0.771D-01 0.283D+00 0.435D+00
 Coeff-En:   0.000D+00 0.000D+00 0.000D+00 0.000D+00 0.100D+01
 Coeff:      0.145D-02 0.203D+00 0.770D-01 0.283D+00 0.436D+00
 Gap=     0.145 Goal=   None    Shift=    0.000
 RMSDP=2.36D-05 MaxDP=5.37D-04 DE=-1.55D-04 OVMax= 6.78D-04

 Cycle   6  Pass 0  IDiag  1:
 E= -283.891651662413     Delta-E=       -0.000005243039 Rises=F Damp=F
 DIIS: error= 5.26D-05 at cycle   6 NSaved=   6.
 NSaved= 6 IEnMin= 6 EnMin= -283.891651662413     IErMin= 6 ErrMin= 5.26D-05
 ErrMax= 5.26D-05  0.00D+00 EMaxC= 1.00D-01 BMatC= 5.36D-07 BMatP= 7.46D-06
 IDIUse=1 WtCom= 1.00D+00 WtEn= 0.00D+00
 Coeff-Com:  0.322D-03 0.592D-01 0.203D-01 0.982D-01 0.251D+00 0.571D+00
 Coeff:      0.322D-03 0.592D-01 0.203D-01 0.982D-01 0.251D+00 0.571D+00
 Gap=     0.145 Goal=   None    Shift=    0.000
 RMSDP=9.86D-06 MaxDP=2.00D-04 DE=-5.24D-06 OVMax= 2.22D-04

 Initial convergence to 1.0D-05 achieved.  Increase integral accuracy.
 Cycle   7  Pass 1  IDiag  1:
 E= -283.891630851548     Delta-E=        0.000020810866 Rises=F Damp=F
 DIIS: error= 1.10D-05 at cycle   1 NSaved=   1.
 NSaved= 1 IEnMin= 1 EnMin= -283.891630851548     IErMin= 1 ErrMin= 1.10D-05
 ErrMax= 1.10D-05  0.00D+00 EMaxC= 1.00D-01 BMatC= 3.28D-08 BMatP= 3.28D-08
 IDIUse=1 WtCom= 1.00D+00 WtEn= 0.00D+00
 Coeff-Com:  0.100D+01
 Coeff:      0.100D+01
 Gap=     0.145 Goal=   None    Shift=    0.000
 RMSDP=9.86D-06 MaxDP=2.00D-04 DE= 2.08D-05 OVMax= 1.21D-04

 Cycle   8  Pass 1  IDiag  1:
 E= -283.891630838920     Delta-E=        0.000000012628 Rises=F Damp=F
 DIIS: error= 1.72D-05 at cycle   2 NSaved=   2.
 NSaved= 2 IEnMin= 1 EnMin= -283.891630851548     IErMin= 1 ErrMin= 1.10D-05
 ErrMax= 1.72D-05  0.00D+00 EMaxC= 1.00D-01 BMatC= 5.65D-08 BMatP= 3.28D-08
 IDIUse=1 WtCom= 1.00D+00 WtEn= 0.00D+00
 Coeff-Com:  0.577D+00 0.423D+00
 Coeff:      0.577D+00 0.423D+00
 Gap=     0.145 Goal=   None    Shift=    0.000
 RMSDP=2.86D-06 MaxDP=5.83D-05 DE= 1.26D-08 OVMax= 7.66D-05

 Cycle   9  Pass 1  IDiag  1:
 E= -283.891630887950     Delta-E=       -0.000000049031 Rises=F Damp=F
 DIIS: error= 5.12D-06 at cycle   3 NSaved=   3.
 NSaved= 3 IEnMin= 3 EnMin= -283.891630887950     IErMin= 3 ErrMin= 5.12D-06
 ErrMax= 5.12D-06  0.00D+00 EMaxC= 1.00D-01 BMatC= 4.47D-09 BMatP= 3.28D-08
 IDIUse=1 WtCom= 1.00D+00 WtEn= 0.00D+00
 Coeff-Com:  0.175D+00 0.233D+00 0.592D+00
 Coeff:      0.175D+00 0.233D+00 0.592D+00
 Gap=     0.145 Goal=   None    Shift=    0.000
 RMSDP=8.12D-07 MaxDP=2.16D-05 DE=-4.90D-08 OVMax= 2.58D-05

 Cycle  10  Pass 1  IDiag  1:
 E= -283.891630889669     Delta-E=       -0.000000001719 Rises=F Damp=F
 DIIS: error= 4.13D-06 at cycle   4 NSaved=   4.
 NSaved= 4 IEnMin= 4 EnMin= -283.891630889669     IErMin= 4 ErrMin= 4.13D-06
 ErrMax= 4.13D-06  0.00D+00 EMaxC= 1.00D-01 BMatC= 2.19D-09 BMatP= 4.47D-09
 IDIUse=1 WtCom= 1.00D+00 WtEn= 0.00D+00
 Coeff-Com:  0.427D-01 0.109D+00 0.444D+00 0.404D+00
 Coeff:      0.427D-01 0.109D+00 0.444D+00 0.404D+00
 Gap=     0.145 Goal=   None    Shift=    0.000
 RMSDP=4.94D-07 MaxDP=1.36D-05 DE=-1.72D-09 OVMax= 2.20D-05

 Cycle  11  Pass 1  IDiag  1:
 E= -283.891630891188     Delta-E=       -0.000000001519 Rises=F Damp=F
 DIIS: error= 1.85D-06 at cycle   5 NSaved=   5.
 NSaved= 5 IEnMin= 5 EnMin= -283.891630891188     IErMin= 5 ErrMin= 1.85D-06
 ErrMax= 1.85D-06  0.00D+00 EMaxC= 1.00D-01 BMatC= 3.43D-10 BMatP= 2.19D-09
 IDIUse=1 WtCom= 1.00D+00 WtEn= 0.00D+00
 Coeff-Com:  0.502D-02 0.493D-01 0.255D+00 0.305D+00 0.386D+00
 Coeff:      0.502D-02 0.493D-01 0.255D+00 0.305D+00 0.386D+00
 Gap=     0.145 Goal=   None    Shift=    0.000
 RMSDP=1.83D-07 MaxDP=4.23D-06 DE=-1.52D-09 OVMax= 8.68D-06

 Cycle  12  Pass 1  IDiag  1:
 E= -283.891630891435     Delta-E=       -0.000000000247 Rises=F Damp=F
 DIIS: error= 3.82D-07 at cycle   6 NSaved=   6.
 NSaved= 6 IEnMin= 6 EnMin= -283.891630891435     IErMin= 6 ErrMin= 3.82D-07
 ErrMax= 3.82D-07  0.00D+00 EMaxC= 1.00D-01 BMatC= 2.45D-11 BMatP= 3.43D-10
 IDIUse=1 WtCom= 1.00D+00 WtEn= 0.00D+00
 Coeff-Com: -0.168D-02 0.172D-01 0.103D+00 0.139D+00 0.258D+00 0.484D+00
 Coeff:     -0.168D-02 0.172D-01 0.103D+00 0.139D+00 0.258D+00 0.484D+00
 Gap=     0.145 Goal=   None    Shift=    0.000
 RMSDP=4.85D-08 MaxDP=8.88D-07 DE=-2.47D-10 OVMax= 1.62D-06

 Cycle  13  Pass 1  IDiag  1:
 E= -283.891630891456     Delta-E=       -0.000000000021 Rises=F Damp=F
 DIIS: error= 2.28D-08 at cycle   7 NSaved=   7.
 NSaved= 7 IEnMin= 7 EnMin= -283.891630891456     IErMin= 7 ErrMin= 2.28D-08
 ErrMax= 2.28D-08  0.00D+00 EMaxC= 1.00D-01 BMatC= 6.31D-14 BMatP= 2.45D-11
 IDIUse=1 WtCom= 1.00D+00 WtEn= 0.00D+00
 Coeff-Com: -0.494D-03 0.405D-02 0.248D-01 0.350D-01 0.683D-01 0.139D+00
 Coeff-Com:  0.730D+00
 Coeff:     -0.494D-03 0.405D-02 0.248D-01 0.350D-01 0.683D-01 0.139D+00
 Coeff:      0.730D+00
 Gap=     0.145 Goal=   None    Shift=    0.000
 RMSDP=4.72D-09 MaxDP=6.79D-08 DE=-2.10D-11 OVMax= 9.26D-08

 SCF Done:  E(RPBE-PBE) =  -283.891630891     A.U. after   13 cycles
            NFock= 13  Conv=0.47D-08     -V/T= 2.0086
 KE= 2.814636774554D+02 PE=-1.022227049551D+03 EE= 2.785557983643D+02
 Leave Link  502 at Fri Sep 11 13:31:07 2015, MaxMem=    33554432 cpu:        21.1
 (Enter /usr/local/research/Gaussian09/g09-revD.01/g09/l508.exe)
 QCSCF skips out because SCF is already converged.
 Leave Link  508 at Fri Sep 11 13:31:07 2015, MaxMem=    33554432 cpu:         0.0
 (Enter /usr/local/research/Gaussian09/g09-revD.01/g09/l701.exe)
 Compute integral first derivatives.
 ... and contract with generalized density number  0.
   1 Symmetry operations used in ECPInt.
 ECPInt:  NShTT=    1035 NPrTT=    3735 LenC2=    1033 LenP2D=    3185.
 LDataN:  DoStor=T MaxTD1= 5 Len=  102
 Leave Link  701 at Fri Sep 11 13:31:08 2015, MaxMem=    33554432 cpu:         0.3
 (Enter /usr/local/research/Gaussian09/g09-revD.01/g09/l702.exe)
 L702 exits ... SP integral derivatives will be done elsewhere.
 Leave Link  702 at Fri Sep 11 13:31:08 2015, MaxMem=    33554432 cpu:         0.0
 (Enter /usr/local/research/Gaussian09/g09-revD.01/g09/l703.exe)
 Compute integral first derivatives, UseDBF=F ICtDFT=           0.
 Integral derivatives from FoFJK, PRISM(SPDF).
 Calling FoFJK, ICntrl=      2527 FMM=F ISym2X=0 I1Cent= 0 IOpClX= 0 NMat=1 NMatS=1 NMatT=0.
 FoFJK:  IHMeth= 1 ICntrl=    2527 DoSepK=F KAlg= 0 I1Cent=   0 FoldK=F
 IRaf=         0 NMat=   1 IRICut=       1 DoRegI=T DoRafI=F ISym2E= 0.
 FoFCou: FMM=F IPFlag=           0 FMFlag=      100000 FMFlg1=         800
         NFxFlg=           0 DoJE=F BraDBF=F KetDBF=F FulRan=T
         wScrn=  0.000000 ICntrl=    2527 IOpCl=  0 I1Cent=           0 NGrid=           0
         NMat0=    1 NMatS0=      1 NMatT0=    0 NMatD0=    1 NMtDS0=    0 NMtDT0=    0
 Symmetry not used in FoFCou.
 Leave Link  703 at Fri Sep 11 13:31:15 2015, MaxMem=    33554432 cpu:         7.4
 (Enter /usr/local/research/Gaussian09/g09-revD.01/g09/l716.exe)
 Dipole        =-5.20548934D-01 3.03689623D-01 3.43372545D-01
 ***** Axes restored to original set *****
 -------------------------------------------------------------------
 Center     Atomic                   Forces (Hartrees/Bohr)
 Number     Number              X              Y              Z
 -------------------------------------------------------------------
      1        7          -0.014676062    0.028125157    0.020970734
      2        6           0.022510588   -0.020168663   -0.002511234
      3        1           0.000671130   -0.011191552   -0.008666083
      4        1           0.006686129   -0.007798455   -0.009428942
      5        6           0.003735498    0.024266282    0.000210958
      6        1          -0.005767040    0.004299501   -0.000873452
      7        1          -0.004287004    0.001123038    0.000068661
      8        8           0.007760344   -0.015488814    0.000491039
      9        8          -0.018522570   -0.010482045   -0.000035443
     10        1           0.001888987    0.007315550   -0.000226238
 -------------------------------------------------------------------
 Cartesian Forces:  Max     0.028125157 RMS     0.011897738
 Leave Link  716 at Fri Sep 11 13:31:15 2015, MaxMem=    33554432 cpu:         0.0
 (Enter /usr/local/research/Gaussian09/g09-revD.01/g09/l103.exe)

 GradGradGradGradGradGradGradGradGradGradGradGradGradGradGradGradGradGrad
 Berny optimization.
 Using GEDIIS/GDIIS optimizer.
 FormGI is forming the generalized inverse of G from B-inverse, IUseBI=4.
 Internal  Forces:  Max     0.017304444 RMS     0.006139511
 Search for a local minimum.
 Step number   2 out of a maximum of   46
 All quantities printed in internal units (Hartrees-Bohrs-Radians)
 RMS Force = .61395D-02 SwitMx=.10000D-02 MixMth= 1
 Mixed Optimization -- RFO/linear search
 Update second derivatives using D2CorX and points    1    2
 DE= -2.00D-02 DEPred=-2.00D-02 R= 1.00D+00
 TightC=F SS=  1.41D+00  RLast= 3.24D-01 DXNew= 5.0454D-01 9.7085D-01
 Trust test= 1.00D+00 RLast= 3.24D-01 DXMaxT set to 5.05D-01
 ITU=  1  0
 Use linear search instead of GDIIS.
     Eigenvalues ---    0.00475   0.00680   0.01044   0.01295   0.02946
     Eigenvalues ---    0.05015   0.06429   0.10294   0.13220   0.15039
     Eigenvalues ---    0.16000   0.16526   0.22096   0.24690   0.25009
     Eigenvalues ---    0.30418   0.33764   0.33997   0.38362   0.44027
     Eigenvalues ---    0.47551   0.47952   0.55138   0.78626
 RFO step:  Lambda=-4.77569184D-03 EMin= 4.75270128D-03
 Quartic linear search produced a step of  0.39376.
 Iteration  1 RMS(Cart)=  0.03602024 RMS(Int)=  0.00264227
 Iteration  2 RMS(Cart)=  0.00227039 RMS(Int)=  0.00113828
 Iteration  3 RMS(Cart)=  0.00001269 RMS(Int)=  0.00113824
 Iteration  4 RMS(Cart)=  0.00000005 RMS(Int)=  0.00113824
 ITry= 1 IFail=0 DXMaxC= 1.09D-01 DCOld= 1.00D+10 DXMaxT= 5.05D-01 DXLimC= 3.00D+00 Rises=F
 Variable       Old X    -DE/DX   Delta X   Delta X   Delta X     New X
                                 (Linear)    (Quad)   (Total)
    R1        2.78196  -0.01165   0.01723  -0.05832  -0.04109   2.74087
    R2        1.91708   0.00342   0.01022   0.00014   0.01036   1.92745
    R3        1.91447   0.00374   0.00919   0.00203   0.01122   1.92569
    R4        2.85466   0.00197  -0.00845   0.01742   0.00897   2.86363
    R5        2.10201   0.00440   0.01127   0.00653   0.01781   2.11982
    R6        2.09424   0.00258   0.00821   0.00224   0.01045   2.10469
    R7        2.31820  -0.01730  -0.02355  -0.00826  -0.03181   2.28638
    R8        2.60687  -0.01607  -0.03758  -0.01737  -0.05495   2.55193
    R9        1.83959   0.00748   0.01004   0.00912   0.01916   1.85875
    A1        1.93964   0.00714   0.03858  -0.02171   0.01449   1.95413
    A2        1.93714   0.00807   0.03760  -0.01279   0.02244   1.95959
    A3        2.13139  -0.01431  -0.05807  -0.10881  -0.17079   1.96060
    A4        1.97437   0.00286   0.01871   0.00657   0.02467   1.99904
    A5        1.97978   0.00379   0.02761   0.02035   0.04793   2.02770
    A6        1.92691  -0.00037   0.00679  -0.00901  -0.00174   1.92517
    A7        1.83770  -0.00316  -0.02261   0.00376  -0.02089   1.81681
    A8        1.84733  -0.00106  -0.01881   0.00859  -0.01076   1.83657
    A9        1.89020  -0.00265  -0.01467  -0.03206  -0.04821   1.84199
   A10        2.15016   0.00507   0.02196   0.00501   0.02680   2.17696
   A11        2.00793  -0.00849  -0.03405  -0.01053  -0.04475   1.96318
   A12        2.12481   0.00342   0.01197   0.00642   0.01823   2.14304
   A13        1.83381  -0.00195  -0.03044   0.01841  -0.01204   1.82178
    D1       -0.59740  -0.00321  -0.01149  -0.11918  -0.13037  -0.72777
    D2        1.49426  -0.00243  -0.00874  -0.09426  -0.10119   1.39307
    D3       -2.66382  -0.00348  -0.00430  -0.12819  -0.13171  -2.79553
    D4       -3.02972   0.00234   0.00007   0.07918   0.07763  -2.95209
    D5       -0.93806   0.00311   0.00282   0.10410   0.10680  -0.83125
    D6        1.18704   0.00207   0.00725   0.07017   0.07629   1.26333
    D7       -3.12625   0.00159   0.00604   0.06566   0.07147  -3.05479
    D8        0.04076   0.00168   0.01605   0.02576   0.04157   0.08233
    D9        0.98566  -0.00272  -0.02460   0.03340   0.01001   0.99566
   D10       -2.13051  -0.00263  -0.01459  -0.00650  -0.01989  -2.15040
   D11       -1.01416   0.00210   0.01338   0.06414   0.07655  -0.93761
   D12        2.15285   0.00219   0.02339   0.02423   0.04665   2.19951
   D13        3.12112  -0.00023  -0.00806   0.01482   0.00675   3.12788
   D14        0.00455  -0.00017   0.00179  -0.02443  -0.02264  -0.01809
         Item               Value     Threshold  Converged?
 Maximum Force            0.017304     0.000450     NO 
 RMS     Force            0.006140     0.000300     NO 
 Maximum Displacement     0.108905     0.001800     NO 
 RMS     Displacement     0.036744     0.001200     NO 
 Predicted change in Energy=-4.447561D-03
 Lowest energy point so far.  Saving SCF results.
 GradGradGradGradGradGradGradGradGradGradGradGradGradGradGradGradGradGrad

 Leave Link  103 at Fri Sep 11 13:31:15 2015, MaxMem=    33554432 cpu:         0.0
 (Enter /usr/local/research/Gaussian09/g09-revD.01/g09/l202.exe)
                          Input orientation:                          
 ---------------------------------------------------------------------
 Center     Atomic      Atomic             Coordinates (Angstroms)
 Number     Number       Type             X           Y           Z
 ---------------------------------------------------------------------
      1          7           0        0.062506   -1.922533    0.056800
      2          6           0       -0.750183   -0.722941   -0.007988
      3          1           0        0.892873   -1.852991   -0.531396
      4          1           0       -0.477352   -2.765600   -0.133512
      5          6           0        0.036753    0.571966    0.008876
      6          1           0       -1.417782   -0.625257   -0.904154
      7          1           0       -1.426216   -0.665948    0.875289
      8          8           0       -0.454765    1.676804    0.048948
      9          8           0        1.371023    0.365796   -0.020458
     10          1           0        1.758028    1.270068   -0.018789
 ---------------------------------------------------------------------
                    Distance matrix (angstroms):
                    1          2          3          4          5
     1  N    0.000000
     2  C    1.450407   0.000000
     3  H    1.019960   2.061698   0.000000
     4  H    1.019033   2.064618   1.693718   0.000000
     5  C    2.495092   1.515367   2.627784   3.379930   0.000000
     6  H    2.190345   1.121759   2.642992   2.461578   2.093476
     7  H    2.113107   1.113754   2.960744   2.515266   2.103183
     8  O    3.636325   2.418531   3.822614   4.446207   1.209902
     9  O    2.637164   2.384328   2.326521   3.637982   1.350423
    10  H    3.615689   3.203642   3.280969   4.614835   1.857659
                    6          7          8          9         10
     6  H    0.000000
     7  H    1.779928   0.000000
     8  O    2.671197   2.667404   0.000000
     9  O    3.088776   3.113102   2.248791   0.000000
    10  H    3.802880   3.832354   2.250883   0.983607   0.000000
 Stoichiometry    C2H5NO2
 Framework group  C1[X(C2H5NO2)]
 Deg. of freedom    24
 Full point group                 C1      NOp   1
 RotChk:  IX=0 Diff= 2.24D-02
 Largest Abelian subgroup         C1      NOp   1
 Largest concise Abelian subgroup C1      NOp   1
                         Standard orientation:                         
 ---------------------------------------------------------------------
 Center     Atomic      Atomic             Coordinates (Angstroms)
 Number     Number       Type             X           Y           Z
 ---------------------------------------------------------------------
      1          7           0       -1.844809    0.188559   -0.096303
      2          6           0       -0.740805   -0.745054    0.018682
      3          1           0       -1.696295    1.026135    0.466484
      4          1           0       -2.744112   -0.251338    0.093890
      5          6           0        0.631301   -0.102078    0.003148
      6          1           0       -0.730545   -1.388601    0.937424
      7          1           0       -0.741981   -1.452769   -0.841310
      8          8           0        1.677408   -0.709960    0.001208
      9          8           0        0.569314    1.246811   -0.014159
     10          1           0        1.509852    1.534651   -0.009739
 ---------------------------------------------------------------------
 Rotational constants (GHZ):     10.1944738      4.0447047      2.9618368
 Leave Link  202 at Fri Sep 11 13:31:15 2015, MaxMem=    33554432 cpu:         0.0
 (Enter /usr/local/research/Gaussian09/g09-revD.01/g09/l301.exe)
 Standard basis: def2SVP (5D, 7F)
 Ernie: Thresh=  0.10000D-02 Tol=  0.10000D-05 Strict=F.
 There are   100 symmetry adapted cartesian basis functions of A   symmetry.
 There are    95 symmetry adapted basis functions of A   symmetry.
    95 basis functions,   160 primitive gaussians,   100 cartesian basis functions
    20 alpha electrons       20 beta electrons
       nuclear repulsion energy       179.6741398238 Hartrees.
 IExCor= 1009 DFT=T Ex=PBE Corr=PBE ExCW=0 ScaHFX=  0.000000
 ScaDFX=  1.000000  1.000000  1.000000  1.000000 ScalE2=  1.000000  1.000000
 IRadAn=      0 IRanWt=     -1 IRanGd=            0 ICorTp=0 IEmpDi=  4
 NAtoms=   10 NActive=   10 NUniq=   10 SFac= 1.00D+00 NAtFMM=   60 NAOKFM=F Big=F
 Integral buffers will be    131072 words long.
 Raffenetti 2 integral format.
 Two-electron integral symmetry is turned on.
 Leave Link  301 at Fri Sep 11 13:31:15 2015, MaxMem=    33554432 cpu:         0.1
 (Enter /usr/local/research/Gaussian09/g09-revD.01/g09/l302.exe)
 NPDir=0 NMtPBC=     1 NCelOv=     1 NCel=       1 NClECP=     1 NCelD=      1
         NCelK=      1 NCelE2=     1 NClLst=     1 CellRange=     0.0.
 One-electron integrals computed using PRISM.
   1 Symmetry operations used in ECPInt.
 ECPInt:  NShTT=    1035 NPrTT=    3735 LenC2=    1033 LenP2D=    3189.
 LDataN:  DoStor=T MaxTD1= 4 Len=   56
 NBasis=    95 RedAO= T EigKep=  2.34D-03  NBF=    95
 NBsUse=    95 1.00D-06 EigRej= -1.00D+00 NBFU=    95
 Precomputing XC quadrature grid using
 IXCGrd= 4 IRadAn=           0 IRanWt=          -1 IRanGd=           0 AccXCQ= 0.00D+00.
 Generated NRdTot=       0 NPtTot=           0 NUsed=           0 NTot=          32
 NSgBfM=   100   100   100   100   100 MxSgAt=    10 MxSgA2=    10.
 Leave Link  302 at Fri Sep 11 13:31:16 2015, MaxMem=    33554432 cpu:         0.5
 (Enter /usr/local/research/Gaussian09/g09-revD.01/g09/l303.exe)
 DipDrv:  MaxL=1.
 Leave Link  303 at Fri Sep 11 13:31:16 2015, MaxMem=    33554432 cpu:         0.1
 (Enter /usr/local/research/Gaussian09/g09-revD.01/g09/l401.exe)
 Initial guess from the checkpoint file:  "5-gct.chk"
 B after Tr=     0.000000    0.000000    0.000000
         Rot=    0.999976    0.000909    0.000382   -0.006825 Ang=   0.79 deg.
 Guess basis will be translated and rotated to current coordinates.
 JPrj=2 DoOrth=T DoCkMO=T.
 Generating alternative initial guess.
 ExpMin= 1.22D-01 ExpMax= 2.27D+03 ExpMxC= 3.41D+02 IAcc=1 IRadAn=         1 AccDes= 0.00D+00
 Harris functional with IExCor= 1009 and IRadAn=       1 diagonalized for initial guess.
 HarFok:  IExCor= 1009 AccDes= 0.00D+00 IRadAn=         1 IDoV= 1 UseB2=F ITyADJ=14
 ICtDFT=  3500011 ScaDFX=  1.000000  1.000000  1.000000  1.000000
 FoFCou: FMM=F IPFlag=           0 FMFlag=      100000 FMFlg1=           0
         NFxFlg=           0 DoJE=T BraDBF=F KetDBF=T FulRan=T
         wScrn=  0.000000 ICntrl=     500 IOpCl=  0 I1Cent=   200000004 NGrid=           0
         NMat0=    1 NMatS0=      1 NMatT0=    0 NMatD0=    1 NMtDS0=    0 NMtDT0=    0
 Petite list used in FoFCou.
 Harris En= -283.971157819064    
 Leave Link  401 at Fri Sep 11 13:31:17 2015, MaxMem=    33554432 cpu:         1.0
 (Enter /usr/local/research/Gaussian09/g09-revD.01/g09/l502.exe)
 Closed shell SCF:
 Using DIIS extrapolation, IDIIS=  1040.
 Integral symmetry usage will be decided dynamically.
 Keep J ints in memory in canonical form, NReq=11359554.
 IVT=       37302 IEndB=       37302 NGot=    33554432 MDV=    23118051
 LenX=    23118051 LenY=    23107610
 Requested convergence on RMS density matrix=1.00D-08 within  64 cycles.
 Requested convergence on MAX density matrix=1.00D-06.
 Requested convergence on             energy=1.00D-06.
 No special actions if energy rises.
 FoFCou: FMM=F IPFlag=           0 FMFlag=           0 FMFlg1=           0
         NFxFlg=           0 DoJE=F BraDBF=F KetDBF=F FulRan=T
         wScrn=  0.000000 ICntrl=     600 IOpCl=  0 I1Cent=           0 NGrid=           0
         NMat0=    1 NMatS0=   4560 NMatT0=    0 NMatD0=    1 NMtDS0=    0 NMtDT0=    0
 Symmetry not used in FoFCou.
 Integral accuracy reduced to 1.0D-05 until final iterations.

 Cycle   1  Pass 0  IDiag  1:
 E= -283.892999805335    
 DIIS: error= 2.92D-03 at cycle   1 NSaved=   1.
 NSaved= 1 IEnMin= 1 EnMin= -283.892999805335     IErMin= 1 ErrMin= 2.92D-03
 ErrMax= 2.92D-03  0.00D+00 EMaxC= 1.00D-01 BMatC= 2.69D-03 BMatP= 2.69D-03
 IDIUse=3 WtCom= 9.71D-01 WtEn= 2.92D-02
 Coeff-Com:  0.100D+01
 Coeff-En:   0.100D+01
 Coeff:      0.100D+01
 Gap=     0.494 Goal=   None    Shift=    0.000
 GapD=    0.494 DampG=2.000 DampE=1.000 DampFc=2.0000 IDamp=-1.
 RMSDP=1.23D-03 MaxDP=2.28D-02              OVMax= 2.31D-02

 Cycle   2  Pass 0  IDiag  1:
 E= -283.896204349565     Delta-E=       -0.003204544230 Rises=F Damp=F
 DIIS: error= 1.57D-03 at cycle   2 NSaved=   2.
 NSaved= 2 IEnMin= 2 EnMin= -283.896204349565     IErMin= 2 ErrMin= 1.57D-03
 ErrMax= 1.57D-03  0.00D+00 EMaxC= 1.00D-01 BMatC= 3.58D-04 BMatP= 2.69D-03
 IDIUse=3 WtCom= 9.84D-01 WtEn= 1.57D-02
 Coeff-Com:  0.152D+00 0.848D+00
 Coeff-En:   0.000D+00 0.100D+01
 Coeff:      0.149D+00 0.851D+00
 Gap=     0.163 Goal=   None    Shift=    0.000
 RMSDP=5.24D-04 MaxDP=1.23D-02 DE=-3.20D-03 OVMax= 2.30D-02

 Cycle   3  Pass 0  IDiag  1:
 E= -283.895305444286     Delta-E=        0.000898905280 Rises=F Damp=F
 DIIS: error= 3.87D-03 at cycle   3 NSaved=   3.
 NSaved= 3 IEnMin= 2 EnMin= -283.896204349565     IErMin= 2 ErrMin= 1.57D-03
 ErrMax= 3.87D-03  0.00D+00 EMaxC= 1.00D-01 BMatC= 1.48D-03 BMatP= 3.58D-04
 IDIUse=3 WtCom= 1.38D-01 WtEn= 8.62D-01
 Coeff-Com:  0.257D-01 0.664D+00 0.310D+00
 Coeff-En:   0.000D+00 0.741D+00 0.259D+00
 Coeff:      0.355D-02 0.730D+00 0.266D+00
 Gap=     0.162 Goal=   None    Shift=    0.000
 RMSDP=3.05D-04 MaxDP=7.67D-03 DE= 8.99D-04 OVMax= 1.44D-02

 Cycle   4  Pass 0  IDiag  1:
 E= -283.896460880272     Delta-E=       -0.001155435986 Rises=F Damp=F
 DIIS: error= 5.42D-04 at cycle   4 NSaved=   4.
 NSaved= 4 IEnMin= 4 EnMin= -283.896460880272     IErMin= 4 ErrMin= 5.42D-04
 ErrMax= 5.42D-04  0.00D+00 EMaxC= 1.00D-01 BMatC= 5.07D-05 BMatP= 3.58D-04
 IDIUse=3 WtCom= 9.95D-01 WtEn= 5.42D-03
 Coeff-Com:  0.278D-03 0.365D+00 0.104D+00 0.531D+00
 Coeff-En:   0.000D+00 0.129D+00 0.000D+00 0.871D+00
 Coeff:      0.277D-03 0.363D+00 0.103D+00 0.533D+00
 Gap=     0.160 Goal=   None    Shift=    0.000
 RMSDP=8.16D-05 MaxDP=2.24D-03 DE=-1.16D-03 OVMax= 1.80D-03

 Cycle   5  Pass 0  IDiag  1:
 E= -283.896504524390     Delta-E=       -0.000043644119 Rises=F Damp=F
 DIIS: error= 1.24D-04 at cycle   5 NSaved=   5.
 NSaved= 5 IEnMin= 5 EnMin= -283.896504524390     IErMin= 5 ErrMin= 1.24D-04
 ErrMax= 1.24D-04  0.00D+00 EMaxC= 1.00D-01 BMatC= 2.94D-06 BMatP= 5.07D-05
 IDIUse=3 WtCom= 9.99D-01 WtEn= 1.24D-03
 Coeff-Com:  0.439D-04 0.173D+00 0.410D-01 0.315D+00 0.471D+00
 Coeff-En:   0.000D+00 0.000D+00 0.000D+00 0.000D+00 0.100D+01
 Coeff:      0.438D-04 0.173D+00 0.410D-01 0.315D+00 0.471D+00
 Gap=     0.161 Goal=   None    Shift=    0.000
 RMSDP=1.56D-05 MaxDP=4.00D-04 DE=-4.36D-05 OVMax= 4.40D-04

 Cycle   6  Pass 0  IDiag  1:
 E= -283.896506777590     Delta-E=       -0.000002253200 Rises=F Damp=F
 DIIS: error= 4.33D-05 at cycle   6 NSaved=   6.
 NSaved= 6 IEnMin= 6 EnMin= -283.896506777590     IErMin= 6 ErrMin= 4.33D-05
 ErrMax= 4.33D-05  0.00D+00 EMaxC= 1.00D-01 BMatC= 2.82D-07 BMatP= 2.94D-06
 IDIUse=1 WtCom= 1.00D+00 WtEn= 0.00D+00
 Coeff-Com:  0.238D-03 0.753D-01 0.156D-01 0.154D+00 0.296D+00 0.459D+00
 Coeff:      0.238D-03 0.753D-01 0.156D-01 0.154D+00 0.296D+00 0.459D+00
 Gap=     0.161 Goal=   None    Shift=    0.000
 RMSDP=6.12D-06 MaxDP=1.31D-04 DE=-2.25D-06 OVMax= 1.28D-04

 Initial convergence to 1.0D-05 achieved.  Increase integral accuracy.
 Cycle   7  Pass 1  IDiag  1:
 E= -283.896477309775     Delta-E=        0.000029467814 Rises=F Damp=F
 DIIS: error= 8.12D-06 at cycle   1 NSaved=   1.
 NSaved= 1 IEnMin= 1 EnMin= -283.896477309775     IErMin= 1 ErrMin= 8.12D-06
 ErrMax= 8.12D-06  0.00D+00 EMaxC= 1.00D-01 BMatC= 1.44D-08 BMatP= 1.44D-08
 IDIUse=1 WtCom= 1.00D+00 WtEn= 0.00D+00
 Coeff-Com:  0.100D+01
 Coeff:      0.100D+01
 Gap=     0.161 Goal=   None    Shift=    0.000
 RMSDP=6.12D-06 MaxDP=1.31D-04 DE= 2.95D-05 OVMax= 5.94D-05

 Cycle   8  Pass 1  IDiag  1:
 E= -283.896477319327     Delta-E=       -0.000000009551 Rises=F Damp=F
 DIIS: error= 8.52D-06 at cycle   2 NSaved=   2.
 NSaved= 2 IEnMin= 2 EnMin= -283.896477319327     IErMin= 1 ErrMin= 8.12D-06
 ErrMax= 8.52D-06  0.00D+00 EMaxC= 1.00D-01 BMatC= 1.34D-08 BMatP= 1.44D-08
 IDIUse=1 WtCom= 1.00D+00 WtEn= 0.00D+00
 Coeff-Com:  0.488D+00 0.512D+00
 Coeff:      0.488D+00 0.512D+00
 Gap=     0.161 Goal=   None    Shift=    0.000
 RMSDP=1.67D-06 MaxDP=3.28D-05 DE=-9.55D-09 OVMax= 3.95D-05

 Cycle   9  Pass 1  IDiag  1:
 E= -283.896477327162     Delta-E=       -0.000000007835 Rises=F Damp=F
 DIIS: error= 5.06D-06 at cycle   3 NSaved=   3.
 NSaved= 3 IEnMin= 3 EnMin= -283.896477327162     IErMin= 3 ErrMin= 5.06D-06
 ErrMax= 5.06D-06  0.00D+00 EMaxC= 1.00D-01 BMatC= 3.90D-09 BMatP= 1.34D-08
 IDIUse=1 WtCom= 1.00D+00 WtEn= 0.00D+00
 Coeff-Com:  0.751D-01 0.343D+00 0.582D+00
 Coeff:      0.751D-01 0.343D+00 0.582D+00
 Gap=     0.161 Goal=   None    Shift=    0.000
 RMSDP=6.16D-07 MaxDP=1.53D-05 DE=-7.84D-09 OVMax= 1.74D-05

 Cycle  10  Pass 1  IDiag  1:
 E= -283.896477329581     Delta-E=       -0.000000002419 Rises=F Damp=F
 DIIS: error= 2.51D-06 at cycle   4 NSaved=   4.
 NSaved= 4 IEnMin= 4 EnMin= -283.896477329581     IErMin= 4 ErrMin= 2.51D-06
 ErrMax= 2.51D-06  0.00D+00 EMaxC= 1.00D-01 BMatC= 7.31D-10 BMatP= 3.90D-09
 IDIUse=1 WtCom= 1.00D+00 WtEn= 0.00D+00
 Coeff-Com:  0.181D-01 0.202D+00 0.408D+00 0.371D+00
 Coeff:      0.181D-01 0.202D+00 0.408D+00 0.371D+00
 Gap=     0.161 Goal=   None    Shift=    0.000
 RMSDP=2.88D-07 MaxDP=7.12D-06 DE=-2.42D-09 OVMax= 1.30D-05

 Cycle  11  Pass 1  IDiag  1:
 E= -283.896477330107     Delta-E=       -0.000000000527 Rises=F Damp=F
 DIIS: error= 1.06D-06 at cycle   5 NSaved=   5.
 NSaved= 5 IEnMin= 5 EnMin= -283.896477330107     IErMin= 5 ErrMin= 1.06D-06
 ErrMax= 1.06D-06  0.00D+00 EMaxC= 1.00D-01 BMatC= 1.05D-10 BMatP= 7.31D-10
 IDIUse=1 WtCom= 1.00D+00 WtEn= 0.00D+00
 Coeff-Com:  0.476D-03 0.961D-01 0.213D+00 0.278D+00 0.412D+00
 Coeff:      0.476D-03 0.961D-01 0.213D+00 0.278D+00 0.412D+00
 Gap=     0.161 Goal=   None    Shift=    0.000
 RMSDP=1.05D-07 MaxDP=2.16D-06 DE=-5.27D-10 OVMax= 4.46D-06

 Cycle  12  Pass 1  IDiag  1:
 E= -283.896477330189     Delta-E=       -0.000000000082 Rises=F Damp=F
 DIIS: error= 1.87D-07 at cycle   6 NSaved=   6.
 NSaved= 6 IEnMin= 6 EnMin= -283.896477330189     IErMin= 6 ErrMin= 1.87D-07
 ErrMax= 1.87D-07  0.00D+00 EMaxC= 1.00D-01 BMatC= 5.82D-12 BMatP= 1.05D-10
 IDIUse=1 WtCom= 1.00D+00 WtEn= 0.00D+00
 Coeff-Com: -0.822D-03 0.361D-01 0.831D-01 0.127D+00 0.254D+00 0.501D+00
[...]
        18        -0.0875     -0.2060      0.0394
        19        -0.4169      0.3343      0.0935
        20        -0.2506     -0.0975      0.2683
        21        -0.2029      0.0712      0.5950
        22        -0.0494      0.2473      0.1759
        23         0.3160     -0.1419     -0.1440
        24        -0.0770     -0.0307     -0.0070
 Ground to excited state transition velocity quadrupole moments (Au):
       state          XX          YY          ZZ          XY          XZ          YZ
         1         0.1489     -0.0738     -0.1125     -0.0456     -0.0152      0.0901
         2        -0.0473     -0.0188      0.0053     -0.0007      0.0072     -0.0420
         3         0.2665      0.0697     -0.1379      0.0479     -0.2036      0.1317
         4         0.4183     -0.0135     -0.1924     -0.0569     -0.2808      0.1630
         5        -0.2957      0.0066     -0.0569     -0.1499     -0.1289      0.0534
         6         0.0247      0.0864     -0.2630      0.0869      0.3885      0.1169
         7         0.0852      0.0863      0.0669      0.0302     -0.2505     -0.0292
         8        -0.1790      0.2290      0.2910      0.4212     -0.2672     -0.2625
         9         0.0339     -0.0689      0.0131     -0.2075     -0.0038     -0.2468
        10         0.1349      0.1350     -0.0241     -0.2280      0.1327      0.0785
        11         0.3130     -0.3513      0.0612     -0.3398     -0.0166      0.1282
        12         0.0533      0.1312     -0.0088      0.0916      0.0684     -0.0475
        13         0.5794     -0.1585     -0.1329      0.1535      0.1012      0.0109
        14        -0.6103      0.2179      0.1159     -0.0099     -0.0918      0.0396
        15        -0.3138      0.1811      0.2083      0.1806     -0.2684      0.0066
        16        -0.0910      0.1650     -0.0400      0.3308      0.1943      0.1436
        17        -0.0494     -0.1641     -0.0415     -0.0250      0.0789     -0.0337
        18         0.0315      0.0570     -0.0355      0.0113      0.0474     -0.0308
        19         0.4566     -0.2941      0.1668      0.3697     -0.2624     -0.3192
        20        -0.3895     -0.0498      0.3057     -0.1896     -0.2752     -0.2472
        21        -0.0341     -0.1258     -0.1838     -0.0145      0.0008     -0.0518
        22        -0.0716     -0.1164     -0.0350     -0.0376     -0.0402      0.0327
        23         0.2863     -0.1239     -0.1662     -0.3943     -0.0205      0.2030
        24         0.3647     -0.1235      0.0157      0.0364      0.1008     -0.0243
 <0|del|b> * <b|rxdel|0> + <0|del|b> * <b|delr+rdel|0>
 Rotatory Strengths (R) in cgs (10**-40 erg-esu-cm/Gauss)
       state          XX          YY          ZZ    R(velocity)    E-M Angle
         1         1.3972      3.6412      9.5272      4.8552       70.13
         2         1.0255    -11.3431    -17.5008     -9.2728      115.19
         3        34.8314     -1.8235      7.8971     13.6350       48.35
         4         7.1822    -53.1899     -9.3924    -18.4667      112.66
         5       -49.4726    -31.0116     -9.3064    -29.9302      122.23
         6       -61.0013     10.5319      3.5941    -15.6251      103.25
         7        18.1669     14.5529     15.7798     16.1665       40.88
         8        69.2295    -17.0548      3.1161     18.4303       75.81
         9        24.9726    -16.5517     10.2894      6.2368       80.48
        10        35.6338     -3.8544     -6.4610      8.4395       68.55
        11       -48.0835     15.7244     -7.1476    -13.1689      106.38
        12        39.6818     11.1625     37.9759     29.6068       40.41
        13       -28.9689     31.6389     32.7683     11.8128       72.24
        14       -15.2554     21.2071     -1.8535      1.3661       86.68
        15       -48.7209    -36.8957    -59.3927    -48.3364      137.39
        16       -41.0168    -14.2687     -4.9723    -20.0859      127.80
        17       -29.3044     -2.1728    -16.9925    -16.1566      151.75
        18         3.1822      0.2318      0.0361      1.1500       80.65
        19        45.9426    -15.7985      2.7108     10.9516       60.37
        20        -7.7665    149.4599     30.8899     57.5278       25.46
        21       -16.7601    -53.9350    -14.4413    -28.3788      117.91
        22       -12.7046     -4.7172    -13.9196    -10.4471      125.80
        23        30.2964     -8.7595     -4.4866      5.6834       72.67
        24         0.5434      7.5449      5.3994      4.4959       39.55
 1/2[<0|r|b>*<b|rxdel|0> + (<0|rxdel|b>*<b|r|0>)*]
 Rotatory Strengths (R) in cgs (10**-40 erg-esu-cm/Gauss)
       state          XX          YY          ZZ     R(length)
         1        25.4398     11.6087    -11.3534      8.5650
         2       -35.9181     -5.0219      5.0781    -11.9539
         3        -3.6071     37.7025     -1.6127     10.8276
         4       -58.8885      6.0038      0.6396    -17.4150
         5       -27.0036    -24.5458     -8.3078    -19.9524
         6        22.5613    -16.5938    -36.1635    -10.0653
         7        27.2321      6.7302      6.5985     13.5203
         8       -15.8892    -47.7628    111.4638     15.9373
         9       -15.8730     22.9739      1.8538      2.9849
        10        -9.0262     11.4874     20.5890      7.6834
        11        17.5238    -27.3953     -9.9588     -6.6101
        12        16.6350     71.6412     -0.1224     29.3846
        13        63.3031     -4.2466    -25.4515     11.2016
        14        17.4047    -30.0870      8.6919     -1.3301
        15       -62.6928    -82.6944      4.3558    -47.0105
        16       -17.8472    -59.3134      1.6315    -25.1764
        17         0.4783    -41.1284     -2.7262    -14.4588
        18        -1.7225     -3.1918      2.6618     -0.7508
        19        -2.1220     31.7453      7.6859     12.4364
        20       104.7152     17.9604     43.1307     55.2688
        21       -55.2468      8.6534    -39.5381    -28.7105
        22        -7.6755    -19.1235     -4.0631    -10.2874
        23        19.1550     -9.4959     17.9099      9.1897
        24        14.5766     -0.4148     -0.4811      4.5603
  1/2[<0|del|b>*<b|r|0> + (<0|r|b>*<b|del|0>)*] (Au)
       state          X           Y           Z        Dip. S.   Osc.(frdel)
         1        -0.0032     -0.0021     -0.0033      0.0085      0.0057
         2        -0.0008     -0.0001     -0.0009      0.0018      0.0012
         3        -0.0003     -0.0036      0.0005      0.0034      0.0022
         4        -0.0299     -0.0002      0.0010      0.0290      0.0194
         5        -0.0093     -0.0219     -0.0004      0.0317      0.0211
         6        -0.0072     -0.0010     -0.0625      0.0707      0.0471
         7        -0.0374     -0.0012     -0.0045      0.0431      0.0288
         8        -0.0037     -0.0270     -0.0457      0.0764      0.0509
         9        -0.0009     -0.0513     -0.0014      0.0537      0.0358
        10        -0.0047     -0.0182     -0.0027      0.0256      0.0170
        11        -0.0054     -0.0865     -0.0020      0.0939      0.0626
        12        -0.0109     -0.0068     -0.0002      0.0179      0.0119
        13        -0.0305     -0.0002     -0.0165      0.0473      0.0316
        14        -0.0250     -0.0128     -0.0084      0.0462      0.0308
        15        -0.0097     -0.0073     -0.0090      0.0260      0.0173
        16        -0.0029     -0.0463     -0.0002      0.0493      0.0329
        17        -0.0020     -0.0117     -0.0005      0.0141      0.0094
        18        -0.0002      0.0001     -0.0044      0.0045      0.0030
        19        -0.0001     -0.0065     -0.0045      0.0111      0.0074
        20        -0.1366     -0.0218     -0.0198      0.1782      0.1188
        21        -0.0499     -0.0109     -0.0035      0.0644      0.0430
        22        -0.0179     -0.0042     -0.0006      0.0226      0.0151
        23        -0.0013     -0.0038     -0.0121      0.0172      0.0115
        24        -0.0271     -0.0001     -0.0049      0.0321      0.0214

 Excitation energies and oscillator strengths:
 
 Excited State   1:      Singlet-A      4.6392 eV  267.25 nm  f=0.0066  <S**2>=0.000
      20 -> 21         0.70472
 This state for optimization and/or second-order correction.
 Total Energy, E(TD-HF/TD-KS) =  -283.727749016    
 Copying the excited state density for this state as the 1-particle RhoCI density.
 
 Excited State   2:      Singlet-A      5.6737 eV  218.52 nm  f=0.0011  <S**2>=0.000
      19 -> 21         0.70467
 
 Excited State   3:      Singlet-A      5.9476 eV  208.46 nm  f=0.0027  <S**2>=0.000
      20 -> 22         0.70264
 
 Excited State   4:      Singlet-A      6.7085 eV  184.82 nm  f=0.0180  <S**2>=0.000
      20 -> 23         0.69761
 
 Excited State   5:      Singlet-A      6.9317 eV  178.87 nm  f=0.0200  <S**2>=0.000
      18 -> 21        -0.15082
      19 -> 22         0.68297
 
 Excited State   6:      Singlet-A      7.5458 eV  164.31 nm  f=0.0358  <S**2>=0.000
      19 -> 23         0.21284
      20 -> 24         0.66237
 
 Excited State   7:      Singlet-A      7.6063 eV  163.00 nm  f=0.0263  <S**2>=0.000
      18 -> 21         0.17475
      19 -> 23         0.64737
      20 -> 24        -0.20396
 
 Excited State   8:      Singlet-A      8.0343 eV  154.32 nm  f=0.0404  <S**2>=0.000
      20 -> 24        -0.10719
      20 -> 25         0.67713
 
 Excited State   9:      Singlet-A      8.0614 eV  153.80 nm  f=0.0355  <S**2>=0.000
      18 -> 21         0.33412
      18 -> 22         0.56799
      18 -> 23         0.10710
      19 -> 23        -0.12691
      20 -> 25         0.14202
 
 Excited State  10:      Singlet-A      8.4034 eV  147.54 nm  f=0.0180  <S**2>=0.000
      18 -> 21         0.13135
      18 -> 22        -0.14586
      19 -> 24         0.66682
 
 Excited State  11:      Singlet-A      8.5041 eV  145.79 nm  f=0.0665  <S**2>=0.000
      16 -> 21         0.13606
      18 -> 21         0.43588
      18 -> 22        -0.36734
      18 -> 23         0.22622
      19 -> 22         0.10233
      19 -> 24        -0.18370
      19 -> 25        -0.13590
 
 Excited State  12:      Singlet-A      8.6369 eV  143.55 nm  f=0.0127  <S**2>=0.000
      15 -> 21        -0.11707
      17 -> 21         0.67867
 
 Excited State  13:      Singlet-A      8.7872 eV  141.10 nm  f=0.0284  <S**2>=0.000
      16 -> 21         0.17295
      19 -> 25         0.23251
      20 -> 26         0.63361
 
 Excited State  14:      Singlet-A      8.8343 eV  140.34 nm  f=0.0271  <S**2>=0.000
      18 -> 23         0.20511
      19 -> 25         0.61430
      20 -> 26        -0.25007
 
 Excited State  15:      Singlet-A      8.8440 eV  140.19 nm  f=0.0169  <S**2>=0.000
      15 -> 21        -0.18153
      16 -> 21         0.62299
      17 -> 21        -0.14254
      19 -> 25        -0.11457
      20 -> 26        -0.14564
 
 Excited State  16:      Singlet-A      8.9788 eV  138.09 nm  f=0.0383  <S**2>=0.000
      18 -> 21        -0.23685
      18 -> 23         0.61558
      19 -> 25        -0.17410
 
 Excited State  17:      Singlet-A      9.5608 eV  129.68 nm  f=0.0085  <S**2>=0.000
      19 -> 26         0.70221
 
 Excited State  18:      Singlet-A      9.6160 eV  128.94 nm  f=0.0024  <S**2>=0.000
      18 -> 24         0.70613
 
 Excited State  19:      Singlet-A      9.8447 eV  125.94 nm  f=0.0076  <S**2>=0.000
      15 -> 21         0.25392
      16 -> 22         0.17413
      17 -> 22         0.61506
 
 Excited State  20:      Singlet-A      9.9713 eV  124.34 nm  f=0.1145  <S**2>=0.000
      15 -> 21         0.34332
      16 -> 22         0.48816
      17 -> 22        -0.31814
 
 Excited State  21:      Singlet-A      9.9963 eV  124.03 nm  f=0.0457  <S**2>=0.000
      15 -> 21        -0.36983
      16 -> 21        -0.10888
      16 -> 22         0.44806
      17 -> 22         0.11237
      18 -> 25        -0.28915
      20 -> 27        -0.14102
 
 Excited State  22:      Singlet-A     10.1090 eV  122.65 nm  f=0.0152  <S**2>=0.000
      15 -> 21        -0.11593
      18 -> 25         0.54416
      20 -> 27        -0.39970
 
 Excited State  23:      Singlet-A     10.2254 eV  121.25 nm  f=0.0118  <S**2>=0.000
      15 -> 21        -0.20340
      16 -> 22         0.12572
      18 -> 25         0.29882
      20 -> 27         0.54535
      20 -> 28         0.11270
 
 Excited State  24:      Singlet-A     10.3523 eV  119.77 nm  f=0.0207  <S**2>=0.000
      12 -> 21        -0.15426
      14 -> 21         0.67049
      15 -> 21         0.11065
 SavETr:  write IOETrn=   770 NScale= 10 NData=  16 NLR=1 NState=   24 LETran=     442.
 Leave Link  914 at Fri Sep 11 13:44:34 2015, MaxMem=    33554432 cpu:       218.2
 (Enter /usr/local/research/Gaussian09/g09-revD.01/g09/l601.exe)
 Copying SCF densities to generalized density rwf, IOpCl= 0 IROHF=0.

 **********************************************************************

            Population analysis using the SCF density.

 **********************************************************************

 Orbital symmetries:
       Occupied  (A) (A) (A) (A) (A) (A) (A) (A) (A) (A) (A) (A)
                 (A) (A) (A) (A) (A) (A) (A) (A)
       Virtual   (A) (A) (A) (A) (A) (A) (A) (A) (A) (A) (A) (A)
                 (A) (A) (A) (A) (A) (A) (A) (A) (A) (A) (A) (A)
                 (A) (A) (A) (A) (A) (A) (A) (A) (A) (A) (A) (A)
                 (A) (A) (A) (A) (A) (A) (A) (A) (A) (A) (A) (A)
                 (A) (A) (A) (A) (A) (A) (A) (A) (A) (A) (A) (A)
                 (A) (A) (A) (A) (A) (A) (A) (A) (A) (A) (A) (A)
                 (A) (A) (A)
 The electronic state is 1-A.
 Alpha  occ. eigenvalues --  -18.80665 -18.74424 -13.98282 -10.01598  -9.93663
 Alpha  occ. eigenvalues --   -1.00183  -0.91239  -0.80229  -0.64129  -0.54871
 Alpha  occ. eigenvalues --   -0.44893  -0.43300  -0.41981  -0.40369  -0.37036
 Alpha  occ. eigenvalues --   -0.34267  -0.33752  -0.27676  -0.23053  -0.19564
 Alpha virt. eigenvalues --   -0.02940   0.02069   0.04776   0.07634   0.09238
 Alpha virt. eigenvalues --    0.11936   0.17367   0.19155   0.24552   0.30031
 Alpha virt. eigenvalues --    0.40361   0.42487   0.44486   0.47955   0.49640
 Alpha virt. eigenvalues --    0.51359   0.56290   0.57632   0.59143   0.61314
 Alpha virt. eigenvalues --    0.61462   0.63854   0.73474   0.77166   0.77828
 Alpha virt. eigenvalues --    0.82145   0.88394   0.90969   0.93343   1.02534
 Alpha virt. eigenvalues --    1.06285   1.09942   1.16260   1.18562   1.21114
 Alpha virt. eigenvalues --    1.32747   1.36036   1.42352   1.48825   1.51734
 Alpha virt. eigenvalues --    1.55043   1.56582   1.66594   1.68647   1.70013
 Alpha virt. eigenvalues --    1.74206   1.74510   1.78071   1.82077   1.87565
 Alpha virt. eigenvalues --    1.95798   1.99493   2.06269   2.12587   2.16310
 Alpha virt. eigenvalues --    2.23174   2.25188   2.39432   2.53634   2.54390
 Alpha virt. eigenvalues --    2.60505   2.62844   2.73191   2.78604   2.80100
 Alpha virt. eigenvalues --    2.83821   2.91280   2.96025   3.08875   3.10620
 Alpha virt. eigenvalues --    3.11397   3.28360   3.38895   3.52788   3.65512
          Condensed to atoms (all electrons):
               1          2          3          4          5          6
     1  N    6.315944   0.285420   0.341601   0.324613  -0.010001  -0.014774
     2  C    0.285420   4.999956  -0.023147  -0.003611   0.242834   0.303004
     3  H    0.341601  -0.023147   0.602138  -0.026161  -0.019135  -0.007575
     4  H    0.324613  -0.003611  -0.026161   0.617150   0.005695  -0.010932
     5  C   -0.010001   0.242834  -0.019135   0.005695   4.663176   0.000939
     6  H   -0.014774   0.303004  -0.007575  -0.010932   0.000939   0.718102
     7  H   -0.027439   0.348119   0.009354  -0.006065   0.000036  -0.029033
     8  O    0.001979  -0.089583   0.000271  -0.000211   0.689396   0.002960
     9  O    0.001504  -0.132967   0.018128  -0.000146   0.378416  -0.000214
    10  H   -0.001253   0.021450  -0.000761   0.000120  -0.011072  -0.001135
               7          8          9         10
     1  N   -0.027439   0.001979   0.001504  -0.001253
     2  C    0.348119  -0.089583  -0.132967   0.021450
     3  H    0.009354   0.000271   0.018128  -0.000761
     4  H   -0.006065  -0.000211  -0.000146   0.000120
     5  C    0.000036   0.689396   0.378416  -0.011072
     6  H   -0.029033   0.002960  -0.000214  -0.001135
     7  H    0.646806   0.007370   0.005087  -0.000708
     8  O    0.007370   7.651532  -0.080332   0.011696
     9  O    0.005087  -0.080332   7.682395   0.290823
    10  H   -0.000708   0.011696   0.290823   0.513678
 Mulliken charges:
               1
     1  N   -0.217593
     2  C    0.048525
     3  H    0.105288
     4  H    0.099547
     5  C    0.059715
     6  H    0.038659
     7  H    0.046473
     8  O   -0.195078
     9  O   -0.162696
    10  H    0.177161
 Sum of Mulliken charges =   0.00000
 Mulliken charges with hydrogens summed into heavy atoms:
               1
     1  N   -0.012759
     2  C    0.133657
     5  C    0.059715
     8  O   -0.195078
     9  O    0.014465
 Electronic spatial extent (au):  <R**2>=            415.6056
 Charge=              0.0000 electrons
 Dipole moment (field-independent basis, Debye):
    X=             -1.4286    Y=              1.0814    Z=              1.4474  Tot=              2.3034
 Quadrupole moment (field-independent basis, Debye-Ang):
   XX=            -27.5086   YY=            -28.1109   ZZ=            -30.3179
   XY=              5.4875   XZ=             -2.2264   YZ=              0.1695
 Traceless Quadrupole moment (field-independent basis, Debye-Ang):
   XX=              1.1372   YY=              0.5349   ZZ=             -1.6721
   XY=              5.4875   XZ=             -2.2264   YZ=              0.1695
 Octapole moment (field-independent basis, Debye-Ang**2):
  XXX=             -9.3661  YYY=              6.7600  ZZZ=              1.2905  XYY=              1.8518
  XXY=             10.6337  XXZ=              5.1771  XZZ=              4.2857  YZZ=              0.3065
  YYZ=             -0.3674  XYZ=             -1.9717
 Hexadecapole moment (field-independent basis, Debye-Ang**3):
 XXXX=           -280.7663 YYYY=           -130.9229 ZZZZ=            -39.2541 XXXY=             20.0209
 XXXZ=             -7.8779 YYYX=              8.6078 YYYZ=              1.9487 ZZZX=             -3.4246
 ZZZY=              0.8642 XXYY=            -64.6759 XXZZ=            -63.6236 YYZZ=            -29.4453
 XXYZ=              1.5830 YYXZ=             -0.6764 ZZXY=              0.6709
 N-N= 1.789230170853D+02 E-N=-1.023468351005D+03  KE= 2.815541101681D+02
 Leave Link  601 at Fri Sep 11 13:44:34 2015, MaxMem=    33554432 cpu:         0.1
 (Enter /usr/local/research/Gaussian09/g09-revD.01/g09/l9999.exe)
 1\1\GINC-HEISENBERG\SP\RPBEPBE TD-FC\def2SVP\C2H5N1O2\LEIN\11-Sep-2015
 \0\\#p td=(nstates=24) pbepbe def2svp geom=allcheck guess=read\\-- Gly
 cine conformers --\\0,1\N,0,0.063074361,-1.9137309541,0.1774425631\C,0
 ,-0.7399303832,-0.7225208478,-0.0454129028\H,0,0.8550650612,-1.9218078
 78,-0.4774641418\H,0,-0.4939432128,-2.7509810681,-0.0301146872\C,0,0.0
 433885316,0.57188274,0.0984923948\H,0,-1.2335322972,-0.6385118963,-1.0
 533518817\H,0,-1.5656601913,-0.6644566426,0.6927741694\O,0,-0.42861848
 53,1.640815619,0.4305557126\O,0,1.3455700159,0.4195040372,-0.259684473
 3\H,0,1.7494723001,1.3091693707,-0.1596203631\\Version=EM64L-G09RevD.0
 1\State=1-A\HF=-283.8982369\RMSD=1.424e-09\PG=C01 [X(C2H5N1O2)]\\@


 IT IS IMPOSSIBLE TO MEDITATE ON TIME AND THE MYSTERY 
 OF NATURE WITHOUT AN OVERWHELMING EMOTION AT THE
 LIMITATIONS OF HUMAN INTELLIGENCE.

                                         -- ALFRED NORTH WHITEHEAD
 Job cpu time:       0 days  0 hours  3 minutes 44.2 seconds.
 File lengths (MBytes):  RWF=     46 Int=      0 D2E=      0 Chk=      9 Scr=      1
 Normal termination of Gaussian 09 at Fri Sep 11 13:44:34 2015.
