 Entering Gaussian System, Link 0=g09
 Initial command:
 /usr/local/research/Gaussian09/g09-revD.01/g09/l1.exe "/scratch/lein/Gau-5806.inp" -scrdir="/scratch/lein/"
 Entering Link 1 = /usr/local/research/Gaussian09/g09-revD.01/g09/l1.exe PID=      5814.
  
 Copyright (c) 1988,1990,1992,1993,1995,1998,2003,2009,2013,
            Gaussian, Inc.  All Rights Reserved.
  
 This is part of the Gaussian(R) 09 program.  It is based on
 the Gaussian(R) 03 system (copyright 2003, Gaussian, Inc.),
 the Gaussian(R) 98 system (copyright 1998, Gaussian, Inc.),
 the Gaussian(R) 94 system (copyright 1995, Gaussian, Inc.),
 the Gaussian 92(TM) system (copyright 1992, Gaussian, Inc.),
 the Gaussian 90(TM) system (copyright 1990, Gaussian, Inc.),
 the Gaussian 88(TM) system (copyright 1988, Gaussian, Inc.),
 the Gaussian 86(TM) system (copyright 1986, Carnegie Mellon
 University), and the Gaussian 82(TM) system (copyright 1983,
 Carnegie Mellon University). Gaussian is a federally registered
 trademark of Gaussian, Inc.
  
 This software contains proprietary and confidential information,
 including trade secrets, belonging to Gaussian, Inc.
  
 This software is provided under written license and may be
 used, copied, transmitted, or stored only in accord with that
 written license.
  
 The following legend is applicable only to US Government
 contracts under FAR:
  
                    RESTRICTED RIGHTS LEGEND
  
 Use, reproduction and disclosure by the US Government is
 subject to restrictions as set forth in subparagraphs (a)
 and (c) of the Commercial Computer Software - Restricted
 Rights clause in FAR 52.227-19.
  
 Gaussian, Inc.
 340 Quinnipiac St., Bldg. 40, Wallingford CT 06492
  
  
 ---------------------------------------------------------------
 Warning -- This program may not be used in any manner that
 competes with the business of Gaussian, Inc. or will provide
 assistance to any competitor of Gaussian, Inc.  The licensee
 of this program is prohibited from giving any competitor of
 Gaussian, Inc. access to this program.  By using this program,
 the user acknowledges that Gaussian, Inc. is engaged in the
 business of creating and licensing software in the field of
 computational chemistry and represents and warrants to the
 licensee that it is not a competitor of Gaussian, Inc. and that
 it will not use this program in any manner prohibited above.
 ---------------------------------------------------------------
  

 Cite this work as:
 Gaussian 09, Revision D.01,
 M. J. Frisch, G. W. Trucks, H. B. Schlegel, G. E. Scuseria, 
 M. A. Robb, J. R. Cheeseman, G. Scalmani, V. Barone, B. Mennucci, 
 G. A. Petersson, H. Nakatsuji, M. Caricato, X. Li, H. P. Hratchian, 
 A. F. Izmaylov, J. Bloino, G. Zheng, J. L. Sonnenberg, M. Hada, 
 M. Ehara, K. Toyota, R. Fukuda, J. Hasegawa, M. Ishida, T. Nakajima, 
 Y. Honda, O. Kitao, H. Nakai, T. Vreven, J. A. Montgomery, Jr., 
 J. E. Peralta, F. Ogliaro, M. Bearpark, J. J. Heyd, E. Brothers, 
 K. N. Kudin, V. N. Staroverov, T. Keith, R. Kobayashi, J. Normand, 
 K. Raghavachari, A. Rendell, J. C. Burant, S. S. Iyengar, J. Tomasi, 
 M. Cossi, N. Rega, J. M. Millam, M. Klene, J. E. Knox, J. B. Cross, 
 V. Bakken, C. Adamo, J. Jaramillo, R. Gomperts, R. E. Stratmann, 
 O. Yazyev, A. J. Austin, R. Cammi, C. Pomelli, J. W. Ochterski, 
 R. L. Martin, K. Morokuma, V. G. Zakrzewski, G. A. Voth, 
 P. Salvador, J. J. Dannenberg, S. Dapprich, A. D. Daniels, 
 O. Farkas, J. B. Foresman, J. V. Ortiz, J. Cioslowski, 
 and D. J. Fox, Gaussian, Inc., Wallingford CT, 2013.
 
 ******************************************
 Gaussian 09:  EM64L-G09RevD.01 24-Apr-2013
                11-Sep-2015 
 ******************************************
 %chk=6-ttc.chk
 ----------------------------------
 #p opt freq pbepbe def2svp scf=xqc
 ----------------------------------
 1/14=-1,18=20,19=15,26=3,38=1/1,3;
 2/9=110,12=2,17=6,18=5,40=1/2;
 3/5=43,7=101,11=2,16=1,25=1,30=1,71=1,74=1009/1,2,3;
 4//1;
 5/5=2,8=3,13=1,38=5/2,8;
 6/7=2,8=2,9=2,10=2,28=1/1;
 7//1,2,3,16;
 1/14=-1,18=20,19=15,26=3/3(2);
 2/9=110/2;
 99//99;
 2/9=110/2;
 3/5=43,7=101,11=2,16=1,25=1,30=1,71=1,74=1009/1,2,3;
 4/5=5,16=3,69=1/1;
 5/5=2,8=3,13=1,38=5/2,8;
 7//1,2,3,16;
 1/14=-1,18=20,19=15,26=3/3(-5);
 2/9=110/2;
 6/7=2,8=2,9=2,10=2,19=2,28=1/1;
 99/9=1/99;
 Leave Link    1 at Fri Sep 11 13:44:34 2015, MaxMem=           0 cpu:         0.0
 (Enter /usr/local/research/Gaussian09/g09-revD.01/g09/l101.exe)
 ------------------------
 -- Glycine conformers --
 ------------------------
 Symbolic Z-matrix:
 Charge =  0 Multiplicity = 1
 N                     0.21809  -1.84603   0. 
 C                    -0.77997  -0.79559   0. 
 H                     0.51748  -1.93228   0.92982 
 H                     0.51748  -1.93228  -0.92982 
 C                    -0.11126   0.57149   0. 
 H                    -1.39982  -0.87166  -0.91821 
 H                    -1.39982  -0.87166   0.91821 
 O                     1.14414   0.65779   0. 
 O                    -0.90957   1.75786   0. 
 H                    -1.83916   1.5185    0. 
 
 NAtoms=     10 NQM=       10 NQMF=       0 NMMI=      0 NMMIF=      0
                NMic=       0 NMicF=      0.
                    Isotopes and Nuclear Properties:
 (Nuclear quadrupole moments (NQMom) in fm**2, nuclear magnetic moments (NMagM)
  in nuclear magnetons)

  Atom         1           2           3           4           5           6           7           8           9          10
 IAtWgt=          14          12           1           1          12           1           1          16          16           1
 AtmWgt=  14.0030740  12.0000000   1.0078250   1.0078250  12.0000000   1.0078250   1.0078250  15.9949146  15.9949146   1.0078250
 NucSpn=           2           0           1           1           0           1           1           0           0           1
 AtZEff=   0.0000000   0.0000000   0.0000000   0.0000000   0.0000000   0.0000000   0.0000000   0.0000000   0.0000000   0.0000000
 NQMom=    2.0440000   0.0000000   0.0000000   0.0000000   0.0000000   0.0000000   0.0000000   0.0000000   0.0000000   0.0000000
 NMagM=    0.4037610   0.0000000   2.7928460   2.7928460   0.0000000   2.7928460   2.7928460   0.0000000   0.0000000   2.7928460
 AtZNuc=   7.0000000   6.0000000   1.0000000   1.0000000   6.0000000   1.0000000   1.0000000   8.0000000   8.0000000   1.0000000
 Leave Link  101 at Fri Sep 11 13:44:35 2015, MaxMem=    33554432 cpu:         0.3
 (Enter /usr/local/research/Gaussian09/g09-revD.01/g09/l103.exe)

 GradGradGradGradGradGradGradGradGradGradGradGradGradGradGradGradGradGrad
 Berny optimization.
 Initialization pass.
                           ----------------------------
                           !    Initial Parameters    !
                           ! (Angstroms and Degrees)  !
 --------------------------                            --------------------------
 ! Name  Definition              Value          Derivative Info.                !
 --------------------------------------------------------------------------------
 ! R1    R(1,2)                  1.449          estimate D2E/DX2                !
 ! R2    R(1,3)                  0.9806         estimate D2E/DX2                !
 ! R3    R(1,4)                  0.9806         estimate D2E/DX2                !
 ! R4    R(2,5)                  1.5219         estimate D2E/DX2                !
 ! R5    R(2,6)                  1.1105         estimate D2E/DX2                !
 ! R6    R(2,7)                  1.1105         estimate D2E/DX2                !
 ! R7    R(5,8)                  1.2584         estimate D2E/DX2                !
 ! R8    R(5,9)                  1.43           estimate D2E/DX2                !
 ! R9    R(9,10)                 0.9599         estimate D2E/DX2                !
 ! A1    A(2,1,3)              105.9058         estimate D2E/DX2                !
 ! A2    A(2,1,4)              105.9058         estimate D2E/DX2                !
 ! A3    A(3,1,4)              142.95           estimate D2E/DX2                !
 ! A4    A(1,2,5)              110.3992         estimate D2E/DX2                !
 ! A5    A(1,2,6)              109.5623         estimate D2E/DX2                !
 ! A6    A(1,2,7)              109.5623         estimate D2E/DX2                !
 ! A7    A(5,2,6)              107.8666         estimate D2E/DX2                !
 ! A8    A(5,2,7)              107.8666         estimate D2E/DX2                !
 ! A9    A(6,2,7)              111.558          estimate D2E/DX2                !
 ! A10   A(2,5,8)              119.9981         estimate D2E/DX2                !
 ! A11   A(2,5,9)              119.9981         estimate D2E/DX2                !
 ! A12   A(8,5,9)              120.0038         estimate D2E/DX2                !
 ! A13   A(5,9,10)             109.497          estimate D2E/DX2                !
 ! D1    D(3,1,2,5)             80.3783         estimate D2E/DX2                !
 ! D2    D(3,1,2,6)           -160.9672         estimate D2E/DX2                !
 ! D3    D(3,1,2,7)            -38.2762         estimate D2E/DX2                !
 ! D4    D(4,1,2,5)            -80.3783         estimate D2E/DX2                !
 ! D5    D(4,1,2,6)             38.2762         estimate D2E/DX2                !
 ! D6    D(4,1,2,7)            160.9672         estimate D2E/DX2                !
 ! D7    D(1,2,5,8)              0.0            estimate D2E/DX2                !
 ! D8    D(1,2,5,9)            180.0            estimate D2E/DX2                !
 ! D9    D(6,2,5,8)           -119.6837         estimate D2E/DX2                !
 ! D10   D(6,2,5,9)             60.3163         estimate D2E/DX2                !
 ! D11   D(7,2,5,8)            119.6837         estimate D2E/DX2                !
 ! D12   D(7,2,5,9)            -60.3163         estimate D2E/DX2                !
 ! D13   D(2,5,9,10)             0.0            estimate D2E/DX2                !
 ! D14   D(8,5,9,10)           180.0            estimate D2E/DX2                !
 --------------------------------------------------------------------------------
 Trust Radius=3.00D-01 FncErr=1.00D-07 GrdErr=1.00D-06
 Number of steps in this run=     46 maximum allowed number of steps=    100.
 GradGradGradGradGradGradGradGradGradGradGradGradGradGradGradGradGradGrad

 Leave Link  103 at Fri Sep 11 13:44:35 2015, MaxMem=    33554432 cpu:         0.0
 (Enter /usr/local/research/Gaussian09/g09-revD.01/g09/l202.exe)
                          Input orientation:                          
 ---------------------------------------------------------------------
 Center     Atomic      Atomic             Coordinates (Angstroms)
 Number     Number       Type             X           Y           Z
 ---------------------------------------------------------------------
      1          7           0        0.218093   -1.846029    0.000000
      2          6           0       -0.779965   -0.795595    0.000000
      3          1           0        0.517482   -1.932283    0.929825
      4          1           0        0.517482   -1.932283   -0.929825
      5          6           0       -0.111260    0.571488    0.000000
      6          1           0       -1.399825   -0.871659   -0.918214
      7          1           0       -1.399825   -0.871659    0.918214
      8          8           0        1.144140    0.657790    0.000000
      9          8           0       -0.909566    1.757863    0.000000
     10          1           0       -1.839160    1.518501    0.000000
 ---------------------------------------------------------------------
                    Distance matrix (angstroms):
                    1          2          3          4          5
     1  N    0.000000
     2  C    1.448976   0.000000
     3  H    0.980636   1.959592   0.000000
     4  H    0.980636   1.959592   1.859650   0.000000
     5  C    2.439849   1.521868   2.743858   2.743858   0.000000
     6  H    2.100041   1.110463   2.866398   2.191146   2.141539
     7  H    2.100041   1.110463   2.191146   2.866398   2.141539
     8  O    2.669584   2.411329   2.822367   2.822367   1.258363
     9  O    3.776195   2.556744   4.064261   4.064261   1.429957
    10  H    3.943648   2.544983   4.280917   4.280917   1.970400
                    6          7          8          9         10
     6  H    0.000000
     7  H    1.836428   0.000000
     8  O    3.107103   3.107103   0.000000
     9  O    2.828048   2.828048   2.329778   0.000000
    10  H    2.597883   2.597883   3.104981   0.959917   0.000000
 Stoichiometry    C2H5NO2
 Framework group  CS[SG(C2HNO2),X(H4)]
 Deg. of freedom    15
 Full point group                 CS      NOp   2
 Largest Abelian subgroup         CS      NOp   2
 Largest concise Abelian subgroup CS      NOp   2
                         Standard orientation:                         
 ---------------------------------------------------------------------
 Center     Atomic      Atomic             Coordinates (Angstroms)
 Number     Number       Type             X           Y           Z
 ---------------------------------------------------------------------
      1          7           0        0.449999   -1.850041    0.000000
      2          6           0       -0.599408   -0.850903    0.000000
      3          1           0        0.753331   -1.921194    0.929825
      4          1           0        0.753331   -1.921194   -0.929825
      5          6           0        0.000000    0.547950    0.000000
      6          1           0       -1.214682   -0.957912   -0.918214
      7          1           0       -1.214682   -0.957912    0.918214
      8          8           0        1.249503    0.697010    0.000000
      9          8           0       -0.856713    1.692861    0.000000
     10          1           0       -1.773155    1.407250    0.000000
 ---------------------------------------------------------------------
 Rotational constants (GHZ):     10.0438196      3.8146586      2.8728327
 Leave Link  202 at Fri Sep 11 13:44:35 2015, MaxMem=    33554432 cpu:         0.0
 (Enter /usr/local/research/Gaussian09/g09-revD.01/g09/l301.exe)
 Standard basis: def2SVP (5D, 7F)
 Ernie: Thresh=  0.10000D-02 Tol=  0.10000D-05 Strict=F.
 There are    69 symmetry adapted cartesian basis functions of A'  symmetry.
 There are    31 symmetry adapted cartesian basis functions of A"  symmetry.
 There are    64 symmetry adapted basis functions of A'  symmetry.
 There are    31 symmetry adapted basis functions of A"  symmetry.
    95 basis functions,   160 primitive gaussians,   100 cartesian basis functions
    20 alpha electrons       20 beta electrons
       nuclear repulsion energy       176.6422249771 Hartrees.
 IExCor= 1009 DFT=T Ex=PBE Corr=PBE ExCW=0 ScaHFX=  0.000000
 ScaDFX=  1.000000  1.000000  1.000000  1.000000 ScalE2=  1.000000  1.000000
 IRadAn=      0 IRanWt=     -1 IRanGd=            0 ICorTp=0 IEmpDi=  4
 NAtoms=   10 NActive=   10 NUniq=    8 SFac= 1.56D+00 NAtFMM=   60 NAOKFM=F Big=F
 Integral buffers will be    131072 words long.
 Raffenetti 2 integral format.
 Two-electron integral symmetry is turned on.
 Leave Link  301 at Fri Sep 11 13:44:35 2015, MaxMem=    33554432 cpu:         0.1
 (Enter /usr/local/research/Gaussian09/g09-revD.01/g09/l302.exe)
 NPDir=0 NMtPBC=     1 NCelOv=     1 NCel=       1 NClECP=     1 NCelD=      1
         NCelK=      1 NCelE2=     1 NClLst=     1 CellRange=     0.0.
 One-electron integrals computed using PRISM.
 One-electron integral symmetry used in STVInt
   2 Symmetry operations used in ECPInt.
 ECPInt:  NShTT=    1035 NPrTT=    3735 LenC2=    1033 LenP2D=    3192.
 LDataN:  DoStor=T MaxTD1= 4 Len=   56
 NBasis=    95 RedAO= T EigKep=  3.44D-03  NBF=    64    31
 NBsUse=    95 1.00D-06 EigRej= -1.00D+00 NBFU=    64    31
 Precomputing XC quadrature grid using
 IXCGrd= 4 IRadAn=           0 IRanWt=          -1 IRanGd=           0 AccXCQ= 0.00D+00.
 Generated NRdTot=       0 NPtTot=           0 NUsed=           0 NTot=          32
 NSgBfM=   100   100   100   100   100 MxSgAt=    10 MxSgA2=    10.
 Leave Link  302 at Fri Sep 11 13:44:35 2015, MaxMem=    33554432 cpu:         0.5
 (Enter /usr/local/research/Gaussian09/g09-revD.01/g09/l303.exe)
 DipDrv:  MaxL=1.
 Leave Link  303 at Fri Sep 11 13:44:36 2015, MaxMem=    33554432 cpu:         0.1
 (Enter /usr/local/research/Gaussian09/g09-revD.01/g09/l401.exe)
 ExpMin= 1.22D-01 ExpMax= 2.27D+03 ExpMxC= 3.41D+02 IAcc=1 IRadAn=         1 AccDes= 0.00D+00
 Harris functional with IExCor= 1009 and IRadAn=       1 diagonalized for initial guess.
 HarFok:  IExCor= 1009 AccDes= 0.00D+00 IRadAn=         1 IDoV= 1 UseB2=F ITyADJ=14
 ICtDFT=  3500011 ScaDFX=  1.000000  1.000000  1.000000  1.000000
 FoFCou: FMM=F IPFlag=           0 FMFlag=      100000 FMFlg1=           0
         NFxFlg=           0 DoJE=T BraDBF=F KetDBF=T FulRan=T
         wScrn=  0.000000 ICntrl=     500 IOpCl=  0 I1Cent=   200000004 NGrid=           0
         NMat0=    1 NMatS0=      1 NMatT0=    0 NMatD0=    1 NMtDS0=    0 NMtDT0=    0
 Petite list used in FoFCou.
 Harris En= -283.944942126430    
 JPrj=0 DoOrth=F DoCkMO=F.
 Initial guess orbital symmetries:
       Occupied  (A') (A') (A') (A') (A') (A') (A') (A') (A') (A")
                 (A') (A') (A') (A") (A') (A') (A") (A") (A') (A')
       Virtual   (A") (A') (A') (A") (A') (A') (A') (A") (A') (A')
                 (A') (A') (A") (A') (A') (A") (A') (A') (A') (A")
                 (A') (A") (A') (A') (A') (A") (A') (A") (A') (A')
                 (A") (A') (A") (A') (A') (A") (A') (A") (A") (A")
                 (A') (A") (A') (A') (A') (A") (A') (A') (A') (A")
                 (A') (A') (A") (A') (A') (A') (A') (A") (A") (A')
                 (A") (A') (A') (A") (A') (A") (A') (A") (A") (A")
                 (A') (A') (A') (A') (A')
 The electronic state of the initial guess is 1-A'.
 Leave Link  401 at Fri Sep 11 13:44:36 2015, MaxMem=    33554432 cpu:         0.6
 (Enter /usr/local/research/Gaussian09/g09-revD.01/g09/l502.exe)
 Closed shell SCF:
 Using DIIS extrapolation, IDIIS=  1040.
 Integral symmetry usage will be decided dynamically.
 Keep J ints in memory in symmetry-blocked form, NReq=15735152.
 IVT=       37446 IEndB=       37446 NGot=    33554432 MDV=    28218456
 LenX=    28218456 LenY=    28208015
 Requested convergence on RMS density matrix=1.00D-08 within  64 cycles.
 Requested convergence on MAX density matrix=1.00D-06.
 Requested convergence on             energy=1.00D-06.
 No special actions if energy rises.
 FoFCou: FMM=F IPFlag=           0 FMFlag=           0 FMFlg1=           0
         NFxFlg=           0 DoJE=F BraDBF=F KetDBF=F FulRan=T
         wScrn=  0.000000 ICntrl=     600 IOpCl=  0 I1Cent=           0 NGrid=           0
         NMat0=    1 NMatS0=   4560 NMatT0=    0 NMatD0=    1 NMtDS0=    0 NMtDT0=    0
 Petite list used in FoFCou.
 Integral accuracy reduced to 1.0D-05 until final iterations.

 Cycle   1  Pass 0  IDiag  1:
 E= -283.696148476468    
 DIIS: error= 3.74D-02 at cycle   1 NSaved=   1.
 NSaved= 1 IEnMin= 1 EnMin= -283.696148476468     IErMin= 1 ErrMin= 3.74D-02
 ErrMax= 3.74D-02  0.00D+00 EMaxC= 1.00D-01 BMatC= 1.88D-01 BMatP= 1.88D-01
 IDIUse=3 WtCom= 6.26D-01 WtEn= 3.74D-01
 Coeff-Com:  0.100D+01
 Coeff-En:   0.100D+01
 Coeff:      0.100D+01
 Gap=     0.029 Goal=   None    Shift=    0.000
 GapD=    0.029 DampG=0.250 DampE=0.500 DampFc=0.2500 IDamp=-1.
 Damping current iteration by 2.50D-01
 RMSDP=1.82D-02 MaxDP=4.46D-01              OVMax= 3.85D-01

 Cycle   2  Pass 0  IDiag  1:
 E= -283.737914269568     Delta-E=       -0.041765793100 Rises=F Damp=T
 DIIS: error= 1.48D-02 at cycle   2 NSaved=   2.
 NSaved= 2 IEnMin= 2 EnMin= -283.737914269568     IErMin= 2 ErrMin= 1.48D-02
 ErrMax= 1.48D-02  0.00D+00 EMaxC= 1.00D-01 BMatC= 1.86D-02 BMatP= 1.88D-01
 IDIUse=3 WtCom= 8.52D-01 WtEn= 1.48D-01
 Coeff-Com: -0.108D+00 0.111D+01
 Coeff-En:   0.265D+00 0.735D+00
 Coeff:     -0.528D-01 0.105D+01
 Gap=     0.076 Goal=   None    Shift=    0.000
 RMSDP=4.25D-03 MaxDP=7.67D-02 DE=-4.18D-02 OVMax= 3.03D-01

 Cycle   3  Pass 0  IDiag  1:
 E= -283.777878374908     Delta-E=       -0.039964105340 Rises=F Damp=F
 DIIS: error= 3.52D-02 at cycle   3 NSaved=   3.
 NSaved= 3 IEnMin= 3 EnMin= -283.777878374908     IErMin= 2 ErrMin= 1.48D-02
 ErrMax= 3.52D-02  0.00D+00 EMaxC= 1.00D-01 BMatC= 9.44D-02 BMatP= 1.86D-02
 IDIUse=2 WtCom= 0.00D+00 WtEn= 1.00D+00
 EnCoef did     4 forward-backward iterations
 Coeff-En:   0.106D+00 0.236D+00 0.658D+00
 Coeff:      0.106D+00 0.236D+00 0.658D+00
 Gap=     0.148 Goal=   None    Shift=    0.000
 RMSDP=8.93D-03 MaxDP=1.97D-01 DE=-4.00D-02 OVMax= 3.97D-01

 Cycle   4  Pass 0  IDiag  1:
 E= -283.477008658447     Delta-E=        0.300869716461 Rises=F Damp=F
 DIIS: error= 7.80D-02 at cycle   4 NSaved=   4.
 NSaved= 4 IEnMin= 3 EnMin= -283.777878374908     IErMin= 2 ErrMin= 1.48D-02
 ErrMax= 7.80D-02  0.00D+00 EMaxC= 1.00D-01 BMatC= 4.60D-01 BMatP= 1.86D-02
 IDIUse=2 WtCom= 0.00D+00 WtEn= 1.00D+00
 EnCoef did     1 forward-backward iterations
 Coeff-En:   0.109D+00 0.000D+00 0.659D+00 0.232D+00
 Coeff:      0.109D+00 0.000D+00 0.659D+00 0.232D+00
 Gap=     0.153 Goal=   None    Shift=    0.000
 RMSDP=5.44D-03 MaxDP=1.14D-01 DE= 3.01D-01 OVMax= 2.24D-01

 Cycle   5  Pass 0  IDiag  1:
 E= -283.836467820421     Delta-E=       -0.359459161974 Rises=F Damp=F
 DIIS: error= 1.82D-02 at cycle   5 NSaved=   5.
 NSaved= 5 IEnMin= 5 EnMin= -283.836467820421     IErMin= 2 ErrMin= 1.48D-02
 ErrMax= 1.82D-02  0.00D+00 EMaxC= 1.00D-01 BMatC= 2.79D-02 BMatP= 1.86D-02
 IDIUse=2 WtCom= 0.00D+00 WtEn= 1.00D+00
 Coeff-En:   0.000D+00 0.000D+00 0.286D+00 0.000D+00 0.714D+00
 Coeff:      0.000D+00 0.000D+00 0.286D+00 0.000D+00 0.714D+00
 Gap=     0.135 Goal=   None    Shift=    0.000
 RMSDP=2.13D-03 MaxDP=5.01D-02 DE=-3.59D-01 OVMax= 1.01D-01

 Cycle   6  Pass 0  IDiag  1:
 E= -283.852744418415     Delta-E=       -0.016276597994 Rises=F Damp=F
 DIIS: error= 1.03D-02 at cycle   6 NSaved=   6.
 NSaved= 6 IEnMin= 6 EnMin= -283.852744418415     IErMin= 6 ErrMin= 1.03D-02
 ErrMax= 1.03D-02  0.00D+00 EMaxC= 1.00D-01 BMatC= 8.15D-03 BMatP= 1.86D-02
 IDIUse=3 WtCom= 8.97D-01 WtEn= 1.03D-01
 Coeff-Com: -0.617D-01 0.113D+00 0.171D+00-0.451D-01 0.550D+00 0.273D+00
 Coeff-En:   0.000D+00 0.000D+00 0.000D+00 0.000D+00 0.286D+00 0.714D+00
 Coeff:     -0.553D-01 0.101D+00 0.153D+00-0.404D-01 0.523D+00 0.319D+00
 Gap=     0.142 Goal=   None    Shift=    0.000
 RMSDP=8.12D-04 MaxDP=2.08D-02 DE=-1.63D-02 OVMax= 3.76D-02

 Cycle   7  Pass 0  IDiag  1:
 E= -283.859162932689     Delta-E=       -0.006418514274 Rises=F Damp=F
 DIIS: error= 9.57D-04 at cycle   7 NSaved=   7.
 NSaved= 7 IEnMin= 7 EnMin= -283.859162932689     IErMin= 7 ErrMin= 9.57D-04
 ErrMax= 9.57D-04  0.00D+00 EMaxC= 1.00D-01 BMatC= 1.32D-04 BMatP= 8.15D-03
 IDIUse=3 WtCom= 9.90D-01 WtEn= 9.57D-03
 Coeff-Com: -0.333D-01 0.570D-01 0.522D-01-0.258D-01 0.243D+00 0.201D+00
 Coeff-Com:  0.506D+00
 Coeff-En:   0.000D+00 0.000D+00 0.000D+00 0.000D+00 0.000D+00 0.000D+00
 Coeff-En:   0.100D+01
 Coeff:     -0.330D-01 0.564D-01 0.517D-01-0.255D-01 0.241D+00 0.199D+00
 Coeff:      0.510D+00
 Gap=     0.143 Goal=   None    Shift=    0.000
 RMSDP=1.22D-04 MaxDP=2.80D-03 DE=-6.42D-03 OVMax= 2.99D-03

 Cycle   8  Pass 0  IDiag  1:
 E= -283.859273693369     Delta-E=       -0.000110760681 Rises=F Damp=F
 DIIS: error= 1.58D-04 at cycle   8 NSaved=   8.
 NSaved= 8 IEnMin= 8 EnMin= -283.859273693369     IErMin= 8 ErrMin= 1.58D-04
 ErrMax= 1.58D-04  0.00D+00 EMaxC= 1.00D-01 BMatC= 5.49D-06 BMatP= 1.32D-04
 IDIUse=3 WtCom= 9.98D-01 WtEn= 1.58D-03
 Coeff-Com: -0.186D-02 0.136D-02-0.543D-02-0.367D-03 0.115D-01 0.473D-01
 Coeff-Com:  0.224D+00 0.724D+00
 Coeff-En:   0.000D+00 0.000D+00 0.000D+00 0.000D+00 0.000D+00 0.000D+00
 Coeff-En:   0.000D+00 0.100D+01
 Coeff:     -0.186D-02 0.136D-02-0.543D-02-0.366D-03 0.115D-01 0.473D-01
 Coeff:      0.223D+00 0.724D+00
 Gap=     0.143 Goal=   None    Shift=    0.000
 RMSDP=2.24D-05 MaxDP=5.32D-04 DE=-1.11D-04 OVMax= 4.97D-04

 Cycle   9  Pass 0  IDiag  1:
 E= -283.859278594584     Delta-E=       -0.000004901215 Rises=F Damp=F
 DIIS: error= 2.80D-05 at cycle   9 NSaved=   9.
 NSaved= 9 IEnMin= 9 EnMin= -283.859278594584     IErMin= 9 ErrMin= 2.80D-05
 ErrMax= 2.80D-05  0.00D+00 EMaxC= 1.00D-01 BMatC= 1.04D-07 BMatP= 5.49D-06
 IDIUse=1 WtCom= 1.00D+00 WtEn= 0.00D+00
 Coeff-Com: -0.559D-03-0.123D-03-0.318D-02 0.953D-04 0.354D-02 0.203D-01
 Coeff-Com:  0.953D-01 0.314D+00 0.571D+00
 Coeff:     -0.559D-03-0.123D-03-0.318D-02 0.953D-04 0.354D-02 0.203D-01
 Coeff:      0.953D-01 0.314D+00 0.571D+00
 Gap=     0.143 Goal=   None    Shift=    0.000
 RMSDP=5.19D-06 MaxDP=9.72D-05 DE=-4.90D-06 OVMax= 8.80D-05

 Initial convergence to 1.0D-05 achieved.  Increase integral accuracy.
 Cycle  10  Pass 1  IDiag  1:
 E= -283.859286652399     Delta-E=       -0.000008057815 Rises=F Damp=F
 DIIS: error= 1.28D-05 at cycle   1 NSaved=   1.
 NSaved= 1 IEnMin= 1 EnMin= -283.859286652399     IErMin= 1 ErrMin= 1.28D-05
 ErrMax= 1.28D-05  0.00D+00 EMaxC= 1.00D-01 BMatC= 3.36D-08 BMatP= 3.36D-08
 IDIUse=1 WtCom= 1.00D+00 WtEn= 0.00D+00
 Coeff-Com:  0.100D+01
 Coeff:      0.100D+01
 Gap=     0.143 Goal=   None    Shift=    0.000
 RMSDP=5.19D-06 MaxDP=9.72D-05 DE=-8.06D-06 OVMax= 1.29D-04

 Cycle  11  Pass 1  IDiag  1:
 E= -283.859286621173     Delta-E=        0.000000031227 Rises=F Damp=F
 DIIS: error= 3.51D-05 at cycle   2 NSaved=   2.
 NSaved= 2 IEnMin= 1 EnMin= -283.859286652399     IErMin= 1 ErrMin= 1.28D-05
 ErrMax= 3.51D-05  0.00D+00 EMaxC= 1.00D-01 BMatC= 9.05D-08 BMatP= 3.36D-08
 IDIUse=1 WtCom= 1.00D+00 WtEn= 0.00D+00
 Coeff-Com:  0.648D+00 0.352D+00
 Coeff:      0.648D+00 0.352D+00
 Gap=     0.143 Goal=   None    Shift=    0.000
 RMSDP=3.83D-06 MaxDP=9.06D-05 DE= 3.12D-08 OVMax= 1.75D-04

 Cycle  12  Pass 1  IDiag  1:
 E= -283.859286676086     Delta-E=       -0.000000054913 Rises=F Damp=F
 DIIS: error= 1.77D-05 at cycle   3 NSaved=   3.
 NSaved= 3 IEnMin= 3 EnMin= -283.859286676086     IErMin= 1 ErrMin= 1.28D-05
 ErrMax= 1.77D-05  0.00D+00 EMaxC= 1.00D-01 BMatC= 2.20D-08 BMatP= 3.36D-08
 IDIUse=1 WtCom= 1.00D+00 WtEn= 0.00D+00
 Coeff-Com:  0.178D+00 0.306D+00 0.516D+00
 Coeff:      0.178D+00 0.306D+00 0.516D+00
 Gap=     0.143 Goal=   None    Shift=    0.000
 RMSDP=2.09D-06 MaxDP=4.95D-05 DE=-5.49D-08 OVMax= 8.40D-05

 Cycle  13  Pass 1  IDiag  1:
 E= -283.859286691572     Delta-E=       -0.000000015486 Rises=F Damp=F
 DIIS: error= 6.03D-06 at cycle   4 NSaved=   4.
 NSaved= 4 IEnMin= 4 EnMin= -283.859286691572     IErMin= 4 ErrMin= 6.03D-06
 ErrMax= 6.03D-06  0.00D+00 EMaxC= 1.00D-01 BMatC= 3.69D-09 BMatP= 2.20D-08
 IDIUse=1 WtCom= 1.00D+00 WtEn= 0.00D+00
 Coeff-Com:  0.142D-01 0.154D+00 0.376D+00 0.456D+00
 Coeff:      0.142D-01 0.154D+00 0.376D+00 0.456D+00
 Gap=     0.143 Goal=   None    Shift=    0.000
 RMSDP=6.96D-07 MaxDP=1.26D-05 DE=-1.55D-08 OVMax= 1.38D-05

 Cycle  14  Pass 1  IDiag  1:
 E= -283.859286694614     Delta-E=       -0.000000003042 Rises=F Damp=F
 DIIS: error= 7.78D-07 at cycle   5 NSaved=   5.
 NSaved= 5 IEnMin= 5 EnMin= -283.859286694614     IErMin= 5 ErrMin= 7.78D-07
 ErrMax= 7.78D-07  0.00D+00 EMaxC= 1.00D-01 BMatC= 9.26D-11 BMatP= 3.69D-09
 IDIUse=1 WtCom= 1.00D+00 WtEn= 0.00D+00
 Coeff-Com:  0.122D-03 0.727D-01 0.198D+00 0.250D+00 0.480D+00
 Coeff:      0.122D-03 0.727D-01 0.198D+00 0.250D+00 0.480D+00
 Gap=     0.143 Goal=   None    Shift=    0.000
 RMSDP=1.21D-07 MaxDP=2.56D-06 DE=-3.04D-09 OVMax= 2.83D-06

 Cycle  15  Pass 1  IDiag  1:
 E= -283.859286694691     Delta-E=       -0.000000000077 Rises=F Damp=F
 DIIS: error= 3.00D-07 at cycle   6 NSaved=   6.
 NSaved= 6 IEnMin= 6 EnMin= -283.859286694691     IErMin= 6 ErrMin= 3.00D-07
 ErrMax= 3.00D-07  0.00D+00 EMaxC= 1.00D-01 BMatC= 1.16D-11 BMatP= 9.26D-11
 IDIUse=1 WtCom= 1.00D+00 WtEn= 0.00D+00
 Coeff-Com: -0.722D-03 0.282D-01 0.848D-01 0.101D+00 0.293D+00 0.494D+00
 Coeff:     -0.722D-03 0.282D-01 0.848D-01 0.101D+00 0.293D+00 0.494D+00
 Gap=     0.143 Goal=   None    Shift=    0.000
 RMSDP=3.82D-08 MaxDP=7.43D-07 DE=-7.69D-11 OVMax= 1.09D-06

 Cycle  16  Pass 1  IDiag  1:
 E= -283.859286694701     Delta-E=       -0.000000000010 Rises=F Damp=F
 DIIS: error= 9.76D-08 at cycle   7 NSaved=   7.
 NSaved= 7 IEnMin= 7 EnMin= -283.859286694701     IErMin= 7 ErrMin= 9.76D-08
 ErrMax= 9.76D-08  0.00D+00 EMaxC= 1.00D-01 BMatC= 1.66D-12 BMatP= 1.16D-11
 IDIUse=1 WtCom= 1.00D+00 WtEn= 0.00D+00
 Coeff-Com: -0.542D-03 0.970D-02 0.328D-01 0.360D-01 0.141D+00 0.325D+00
 Coeff-Com:  0.456D+00
 Coeff:     -0.542D-03 0.970D-02 0.328D-01 0.360D-01 0.141D+00 0.325D+00
 Coeff:      0.456D+00
 Gap=     0.143 Goal=   None    Shift=    0.000
 RMSDP=1.20D-08 MaxDP=2.43D-07 DE=-1.00D-11 OVMax= 2.67D-07

 Cycle  17  Pass 1  IDiag  1:
 E= -283.859286694703     Delta-E=       -0.000000000003 Rises=F Damp=F
 DIIS: error= 9.36D-09 at cycle   8 NSaved=   8.
 NSaved= 8 IEnMin= 8 EnMin= -283.859286694703     IErMin= 8 ErrMin= 9.36D-09
 ErrMax= 9.36D-09  0.00D+00 EMaxC= 1.00D-01 BMatC= 1.20D-14 BMatP= 1.66D-12
 IDIUse=1 WtCom= 1.00D+00 WtEn= 0.00D+00
 Coeff-Com: -0.102D-03 0.107D-02 0.430D-02 0.411D-02 0.244D-01 0.591D-01
 Coeff-Com:  0.133D+00 0.774D+00
 Coeff:     -0.102D-03 0.107D-02 0.430D-02 0.411D-02 0.244D-01 0.591D-01
 Coeff:      0.133D+00 0.774D+00
 Gap=     0.143 Goal=   None    Shift=    0.000
 RMSDP=1.34D-09 MaxDP=1.96D-08 DE=-2.73D-12 OVMax= 3.54D-08

 SCF Done:  E(RPBE-PBE) =  -283.859286695     A.U. after   17 cycles
            NFock= 17  Conv=0.13D-08     -V/T= 2.0086
 KE= 2.814250555292D+02 PE=-1.018904083561D+03 EE= 2.769775163603D+02
 Leave Link  502 at Fri Sep 11 13:44:52 2015, MaxMem=    33554432 cpu:        15.9
 (Enter /usr/local/research/Gaussian09/g09-revD.01/g09/l508.exe)
 QCSCF skips out because SCF is already converged.
 Leave Link  508 at Fri Sep 11 13:44:52 2015, MaxMem=    33554432 cpu:         0.0
 (Enter /usr/local/research/Gaussian09/g09-revD.01/g09/l601.exe)
 Copying SCF densities to generalized density rwf, IOpCl= 0 IROHF=0.

 **********************************************************************

            Population analysis using the SCF density.

 **********************************************************************

 Orbital symmetries:
       Occupied  (A') (A') (A') (A') (A') (A') (A') (A') (A') (A')
                 (A") (A') (A') (A") (A') (A') (A") (A") (A') (A')
       Virtual   (A") (A') (A') (A") (A') (A") (A') (A') (A') (A')
                 (A') (A') (A") (A') (A') (A") (A') (A') (A') (A")
                 (A') (A") (A') (A') (A') (A") (A') (A") (A') (A')
                 (A") (A') (A") (A') (A') (A") (A") (A') (A") (A")
                 (A') (A") (A') (A') (A') (A") (A') (A') (A') (A")
                 (A') (A') (A') (A") (A') (A') (A') (A") (A") (A')
                 (A") (A') (A') (A") (A') (A") (A') (A") (A") (A")
                 (A') (A') (A') (A') (A')
 The electronic state is 1-A'.
 Alpha  occ. eigenvalues --  -18.79859 -18.74071 -13.97312 -10.01274  -9.94576
 Alpha  occ. eigenvalues --   -0.96700  -0.89667  -0.80572  -0.63160  -0.53715
 Alpha  occ. eigenvalues --   -0.50602  -0.45478  -0.39874  -0.39485  -0.35679
 Alpha  occ. eigenvalues --   -0.33480  -0.33460  -0.26516  -0.21788  -0.18471
 Alpha virt. eigenvalues --   -0.04206   0.00984   0.02570   0.07205   0.09293
 Alpha virt. eigenvalues --    0.14010   0.14118   0.16769   0.25461   0.30344
 Alpha virt. eigenvalues --    0.36815   0.39761   0.43680   0.49161   0.51176
 Alpha virt. eigenvalues --    0.51759   0.52799   0.56205   0.59731   0.59863
 Alpha virt. eigenvalues --    0.60675   0.71058   0.74879   0.79199   0.80654
 Alpha virt. eigenvalues --    0.85341   0.87897   0.90364   0.94232   0.98603
 Alpha virt. eigenvalues --    1.07167   1.15802   1.16434   1.21688   1.25916
 Alpha virt. eigenvalues --    1.31147   1.34664   1.35437   1.49172   1.51692
 Alpha virt. eigenvalues --    1.53946   1.55551   1.61047   1.64026   1.72888
 Alpha virt. eigenvalues --    1.74041   1.75073   1.81421   1.85476   1.87530
 Alpha virt. eigenvalues --    1.90907   2.07499   2.12906   2.14442   2.16484
 Alpha virt. eigenvalues --    2.22598   2.30791   2.38577   2.55127   2.55601
 Alpha virt. eigenvalues --    2.60711   2.62116   2.68193   2.73218   2.78718
 Alpha virt. eigenvalues --    2.85255   2.89771   2.91524   2.99989   3.11289
 Alpha virt. eigenvalues --    3.16632   3.26492   3.47185   3.57354   3.66299
          Condensed to atoms (all electrons):
               1          2          3          4          5          6
     1  N    6.085358   0.371453   0.398373   0.398373  -0.045952  -0.014886
     2  C    0.371453   5.238623  -0.056501  -0.056501   0.085118   0.325408
     3  H    0.398373  -0.056501   0.566627  -0.030088   0.005322   0.010561
     4  H    0.398373  -0.056501  -0.030088   0.566627   0.005322  -0.012604
     5  C   -0.045952   0.085118   0.005322   0.005322   4.926774  -0.025418
     6  H   -0.014886   0.325408   0.010561  -0.012604  -0.025418   0.674668
     7  H   -0.014886   0.325408  -0.012604   0.010561  -0.025418  -0.012919
     8  O   -0.002949  -0.140624   0.006315   0.006315   0.702752   0.001332
     9  O    0.002817  -0.106001   0.000185   0.000185   0.311980   0.007092
    10  H    0.000303   0.004764  -0.000025  -0.000025  -0.020449   0.002328
               7          8          9         10
     1  N   -0.014886  -0.002949   0.002817   0.000303
     2  C    0.325408  -0.140624  -0.106001   0.004764
     3  H   -0.012604   0.006315   0.000185  -0.000025
     4  H    0.010561   0.006315   0.000185  -0.000025
     5  C   -0.025418   0.702752   0.311980  -0.020449
     6  H   -0.012919   0.001332   0.007092   0.002328
     7  H    0.674668   0.001332   0.007092   0.002328
     8  O    0.001332   7.690415  -0.061650   0.004201
     9  O    0.007092  -0.061650   7.717002   0.298656
    10  H    0.002328   0.004201   0.298656   0.546481
 Mulliken charges:
               1
     1  N   -0.178006
     2  C    0.008852
     3  H    0.111835
     4  H    0.111835
     5  C    0.079969
     6  H    0.044437
     7  H    0.044437
     8  O   -0.207438
     9  O   -0.177360
    10  H    0.161438
 Sum of Mulliken charges =   0.00000
 Mulliken charges with hydrogens summed into heavy atoms:
               1
     1  N    0.045664
     2  C    0.097727
     5  C    0.079969
     8  O   -0.207438
     9  O   -0.015922
 Electronic spatial extent (au):  <R**2>=            425.0819
 Charge=              0.0000 electrons
 Dipole moment (field-independent basis, Debye):
    X=             -3.1136    Y=             -1.8023    Z=              0.0000  Tot=              3.5976
 Quadrupole moment (field-independent basis, Debye-Ang):
   XX=            -27.9306   YY=            -34.0474   ZZ=            -26.1133
   XY=             -4.1107   XZ=              0.0000   YZ=              0.0000
 Traceless Quadrupole moment (field-independent basis, Debye-Ang):
   XX=              1.4331   YY=             -4.6836   ZZ=              3.2505
   XY=             -4.1107   XZ=              0.0000   YZ=              0.0000
 Octapole moment (field-independent basis, Debye-Ang**2):
  XXX=            -11.1445  YYY=              4.5011  ZZZ=              0.0000  XYY=              2.0508
  XXY=              3.5814  XXZ=              0.0000  XZZ=              1.7582  YZZ=             -3.8509
  YYZ=              0.0000  XYZ=              0.0000
 Hexadecapole moment (field-independent basis, Debye-Ang**3):
 XXXX=           -131.5713 YYYY=           -355.4244 ZZZZ=            -33.6459 XXXY=              1.8263
 XXXZ=              0.0000 YYYX=              9.8452 YYYZ=              0.0000 ZZZX=              0.0000
 ZZZY=              0.0000 XXYY=            -68.7909 XXZZ=            -27.8470 YYZZ=            -50.0037
 XXYZ=              0.0000 YYXZ=              0.0000 ZZXY=              3.6589
 N-N= 1.766422249771D+02 E-N=-1.018904084219D+03  KE= 2.814250555292D+02
 Symmetry A'   KE= 2.684393574887D+02
 Symmetry A"   KE= 1.298569804049D+01
 No NMR shielding tensors so no spin-rotation constants.
 Leave Link  601 at Fri Sep 11 13:44:52 2015, MaxMem=    33554432 cpu:         0.3
 (Enter /usr/local/research/Gaussian09/g09-revD.01/g09/l701.exe)
 Compute integral first derivatives.
 ... and contract with generalized density number  0.
   2 Symmetry operations used in ECPInt.
 ECPInt:  NShTT=    1035 NPrTT=    3735 LenC2=    1033 LenP2D=    3192.
 LDataN:  DoStor=T MaxTD1= 5 Len=  102
 Leave Link  701 at Fri Sep 11 13:44:53 2015, MaxMem=    33554432 cpu:         0.3
 (Enter /usr/local/research/Gaussian09/g09-revD.01/g09/l702.exe)
 L702 exits ... SP integral derivatives will be done elsewhere.
 Leave Link  702 at Fri Sep 11 13:44:53 2015, MaxMem=    33554432 cpu:         0.1
 (Enter /usr/local/research/Gaussian09/g09-revD.01/g09/l703.exe)
 Compute integral first derivatives, UseDBF=F ICtDFT=           0.
 Integral derivatives from FoFJK, PRISM(SPDF).
 Calling FoFJK, ICntrl=      2527 FMM=F ISym2X=1 I1Cent= 0 IOpClX= 0 NMat=1 NMatS=1 NMatT=0.
 FoFJK:  IHMeth= 1 ICntrl=    2527 DoSepK=F KAlg= 0 I1Cent=   0 FoldK=F
 IRaf=         0 NMat=   1 IRICut=       1 DoRegI=T DoRafI=F ISym2E= 1.
 FoFCou: FMM=F IPFlag=           0 FMFlag=      100000 FMFlg1=         800
         NFxFlg=           0 DoJE=F BraDBF=F KetDBF=F FulRan=T
         wScrn=  0.000000 ICntrl=    2527 IOpCl=  0 I1Cent=           0 NGrid=           0
         NMat0=    1 NMatS0=      1 NMatT0=    0 NMatD0=    1 NMtDS0=    0 NMtDT0=    0
 Petite list used in FoFCou.
 Leave Link  703 at Fri Sep 11 13:44:58 2015, MaxMem=    33554432 cpu:         4.7
 (Enter /usr/local/research/Gaussian09/g09-revD.01/g09/l716.exe)
 Dipole        =-1.22500401D+00-7.09073304D-01 0.00000000D+00
 ***** Axes restored to original set *****
 -------------------------------------------------------------------
 Center     Atomic                   Forces (Hartrees/Bohr)
 Number     Number              X              Y              Z
 -------------------------------------------------------------------
      1        7          -0.082577895    0.021947856    0.000000000
      2        6           0.009790725   -0.005904421    0.000000000
      3        1           0.040303787   -0.015208276    0.016927062
      4        1           0.040303787   -0.015208276   -0.016927062
      5        6           0.058479280    0.041344653    0.000000000
      6        1          -0.008497246    0.001212082    0.002833941
      7        1          -0.008497246    0.001212082   -0.002833941
      8        8          -0.073438224    0.007616974    0.000000000
      9        8           0.041545197   -0.029257224    0.000000000
     10        1          -0.017412165   -0.007755451    0.000000000
 -------------------------------------------------------------------
 Cartesian Forces:  Max     0.082577895 RMS     0.029100450
 Leave Link  716 at Fri Sep 11 13:44:58 2015, MaxMem=    33554432 cpu:         0.0
 (Enter /usr/local/research/Gaussian09/g09-revD.01/g09/l103.exe)

 GradGradGradGradGradGradGradGradGradGradGradGradGradGradGradGradGradGrad
 Berny optimization.
 FormGI is forming the generalized inverse of G from B-inverse, IUseBI=4.
 Internal  Forces:  Max     0.072748555 RMS     0.019642592
 Search for a local minimum.
 Step number   1 out of a maximum of   46
 All quantities printed in internal units (Hartrees-Bohrs-Radians)
 RMS Force = .19643D-01 SwitMx=.10000D-02 MixMth= 1
 Mixed Optimization -- RFO/linear search
 Second derivative matrix not updated -- first step.
 ITU=  0
     Eigenvalues ---    0.00477   0.00681   0.01044   0.01296   0.02019
     Eigenvalues ---    0.05451   0.06736   0.09538   0.12995   0.16000
     Eigenvalues ---    0.16000   0.16000   0.22138   0.25000   0.25000
     Eigenvalues ---    0.30187   0.32551   0.32551   0.38379   0.40995
     Eigenvalues ---    0.51261   0.51261   0.55491   0.80222
 RFO step:  Lambda=-3.66057998D-02 EMin= 4.76679032D-03
 Linear search not attempted -- first point.
 Maximum step size (   0.300) exceeded in Quadratic search.
    -- Step size scaled by   0.856
 Iteration  1 RMS(Cart)=  0.08223358 RMS(Int)=  0.00422655
 Iteration  2 RMS(Cart)=  0.00405931 RMS(Int)=  0.00036133
 Iteration  3 RMS(Cart)=  0.00003520 RMS(Int)=  0.00036004
 Iteration  4 RMS(Cart)=  0.00000000 RMS(Int)=  0.00036004
 ITry= 1 IFail=0 DXMaxC= 2.56D-01 DCOld= 1.00D+10 DXMaxT= 3.00D-01 DXLimC= 3.00D+00 Rises=F
 ClnCor:  largest displacement from symmetrization is 2.03D-10 for atom    10.
 Variable       Old X    -DE/DX   Delta X   Delta X   Delta X     New X
                                 (Linear)    (Quad)   (Total)
    R1        2.73817   0.00479   0.00000   0.00976   0.00976   2.74793
    R2        1.85313   0.02969   0.00000   0.04630   0.04630   1.89944
    R3        1.85313   0.02969   0.00000   0.04630   0.04630   1.89944
    R4        2.87591   0.01475   0.00000   0.03731   0.03731   2.91323
    R5        2.09847   0.00232   0.00000   0.00548   0.00548   2.10395
    R6        2.09847   0.00232   0.00000   0.00548   0.00548   2.10395
    R7        2.37796  -0.07275   0.00000  -0.07427  -0.07427   2.30369
    R8        2.70223  -0.04418   0.00000  -0.08472  -0.08472   2.61751
    R9        1.81398   0.01881   0.00000   0.02723   0.02723   1.84121
    A1        1.84840   0.02336   0.00000   0.09337   0.09322   1.94162
    A2        1.84840   0.02336   0.00000   0.09337   0.09322   1.94162
    A3        2.49495  -0.04198   0.00000  -0.19273  -0.19289   2.30206
    A4        1.92683   0.01790   0.00000   0.07016   0.06933   1.99616
    A5        1.91222  -0.00150   0.00000   0.00708   0.00676   1.91899
    A6        1.91222  -0.00150   0.00000   0.00708   0.00676   1.91899
    A7        1.88263  -0.00516   0.00000  -0.01528  -0.01637   1.86626
    A8        1.88263  -0.00516   0.00000  -0.01528  -0.01637   1.86626
    A9        1.94705  -0.00427   0.00000  -0.05284  -0.05330   1.89376
   A10        2.09436   0.02257   0.00000   0.06744   0.06744   2.16180
   A11        2.09436  -0.01507   0.00000  -0.04502  -0.04502   2.04934
   A12        2.09446  -0.00750   0.00000  -0.02242  -0.02242   2.07204
   A13        1.91108  -0.00576   0.00000  -0.02508  -0.02508   1.88600
    D1        1.40287  -0.00222   0.00000  -0.03353  -0.03350   1.36937
    D2       -2.80941   0.00141   0.00000  -0.00525  -0.00481  -2.81421
    D3       -0.66805  -0.00585   0.00000  -0.06181  -0.06220  -0.73024
    D4       -1.40287   0.00222   0.00000   0.03353   0.03350  -1.36937
    D5        0.66805   0.00585   0.00000   0.06181   0.06220   0.73024
    D6        2.80941  -0.00141   0.00000   0.00525   0.00481   2.81421
    D7        0.00000   0.00000   0.00000   0.00000   0.00000   0.00000
    D8        3.14159   0.00000   0.00000   0.00000   0.00000   3.14159
    D9       -2.08887  -0.00546   0.00000  -0.04016  -0.03985  -2.12872
   D10        1.05272  -0.00546   0.00000  -0.04016  -0.03985   1.01287
   D11        2.08887   0.00546   0.00000   0.04016   0.03985   2.12872
   D12       -1.05272   0.00546   0.00000   0.04016   0.03985  -1.01287
   D13        0.00000   0.00000   0.00000   0.00000   0.00000   0.00000
   D14        3.14159   0.00000   0.00000   0.00000   0.00000   3.14159
         Item               Value     Threshold  Converged?
 Maximum Force            0.072749     0.000450     NO 
 RMS     Force            0.019643     0.000300     NO 
 Maximum Displacement     0.256033     0.001800     NO 
 RMS     Displacement     0.083999     0.001200     NO 
 Predicted change in Energy=-1.987284D-02
 Lowest energy point so far.  Saving SCF results.
 GradGradGradGradGradGradGradGradGradGradGradGradGradGradGradGradGradGrad

 Leave Link  103 at Fri Sep 11 13:44:58 2015, MaxMem=    33554432 cpu:         0.0
 (Enter /usr/local/research/Gaussian09/g09-revD.01/g09/l202.exe)
                          Input orientation:                          
 ---------------------------------------------------------------------
 Center     Atomic      Atomic             Coordinates (Angstroms)
 Number     Number       Type             X           Y           Z
 ---------------------------------------------------------------------
      1          7           0        0.166544   -1.879481    0.000000
      2          6           0       -0.761444   -0.759944    0.000000
      3          1           0        0.543298   -2.040302    0.917876
      4          1           0        0.543298   -2.040302   -0.917876
      5          6           0       -0.086292    0.625965    0.000000
      6          1           0       -1.410369   -0.804426   -0.903599
      7          1           0       -1.410369   -0.804426    0.903599
      8          8           0        1.121231    0.793278    0.000000
      9          8           0       -0.912292    1.737853    0.000000
     10          1           0       -1.836010    1.427920    0.000000
 ---------------------------------------------------------------------
                    Distance matrix (angstroms):
                    1          2          3          4          5
     1  N    0.000000
     2  C    1.454141   0.000000
     3  H    1.005139   2.045524   0.000000
     4  H    1.005139   2.045524   1.835752   0.000000
     5  C    2.518171   1.541614   2.889267   2.889267   0.000000
     6  H    2.111608   1.113361   2.943124   2.311798   2.148415
     7  H    2.111608   1.113361   2.311798   2.943124   2.148415
     8  O    2.838145   2.440689   3.034086   3.034086   1.219059
     9  O    3.774783   2.502348   4.151590   4.151590   1.385125
    10  H    3.866410   2.437507   4.304901   4.304901   1.924746
                    6          7          8          9         10
     6  H    0.000000
     7  H    1.807198   0.000000
     8  O    3.127003   3.127003   0.000000
     9  O    2.743675   2.743675   2.242195   0.000000
    10  H    2.445615   2.445615   3.024574   0.974327   0.000000
 Stoichiometry    C2H5NO2
 Framework group  CS[SG(C2HNO2),X(H4)]
 Deg. of freedom    15
 Full point group                 CS      NOp   2
 RotChk:  IX=0 Diff= 7.41D-02
 Largest Abelian subgroup         CS      NOp   2
 Largest concise Abelian subgroup CS      NOp   2
                         Standard orientation:                         
 ---------------------------------------------------------------------
 Center     Atomic      Atomic             Coordinates (Angstroms)
 Number     Number       Type             X           Y           Z
 ---------------------------------------------------------------------
      1          7           0        0.507933   -1.888092    0.000000
      2          6           0       -0.529763   -0.869411    0.000000
      3          1           0        0.899169   -2.009509    0.917876
      4          1           0        0.899169   -2.009509   -0.917876
      5          6           0        0.000000    0.578320    0.000000
      6          1           0       -1.170728   -0.980075   -0.903599
      7          1           0       -1.170728   -0.980075    0.903599
      8          8           0        1.184058    0.868340    0.000000
      9          8           0       -0.935461    1.599831    0.000000
     10          1           0       -1.822608    1.196986    0.000000
 ---------------------------------------------------------------------
 Rotational constants (GHZ):     10.1269571      3.7414283      2.8345430
 Leave Link  202 at Fri Sep 11 13:44:58 2015, MaxMem=    33554432 cpu:         0.0
 (Enter /usr/local/research/Gaussian09/g09-revD.01/g09/l301.exe)
 Standard basis: def2SVP (5D, 7F)
 Ernie: Thresh=  0.10000D-02 Tol=  0.10000D-05 Strict=F.
 There are    69 symmetry adapted cartesian basis functions of A'  symmetry.
 There are    31 symmetry adapted cartesian basis functions of A"  symmetry.
 There are    64 symmetry adapted basis functions of A'  symmetry.
 There are    31 symmetry adapted basis functions of A"  symmetry.
    95 basis functions,   160 primitive gaussians,   100 cartesian basis functions
    20 alpha electrons       20 beta electrons
       nuclear repulsion energy       176.7921835168 Hartrees.
 IExCor= 1009 DFT=T Ex=PBE Corr=PBE ExCW=0 ScaHFX=  0.000000
 ScaDFX=  1.000000  1.000000  1.000000  1.000000 ScalE2=  1.000000  1.000000
 IRadAn=      0 IRanWt=     -1 IRanGd=            0 ICorTp=0 IEmpDi=  4
 NAtoms=   10 NActive=   10 NUniq=    8 SFac= 1.56D+00 NAtFMM=   60 NAOKFM=F Big=F
 Integral buffers will be    131072 words long.
 Raffenetti 2 integral format.
 Two-electron integral symmetry is turned on.
 Leave Link  301 at Fri Sep 11 13:44:58 2015, MaxMem=    33554432 cpu:         0.1
 (Enter /usr/local/research/Gaussian09/g09-revD.01/g09/l302.exe)
 NPDir=0 NMtPBC=     1 NCelOv=     1 NCel=       1 NClECP=     1 NCelD=      1
         NCelK=      1 NCelE2=     1 NClLst=     1 CellRange=     0.0.
 One-electron integrals computed using PRISM.
 One-electron integral symmetry used in STVInt
   2 Symmetry operations used in ECPInt.
 ECPInt:  NShTT=    1035 NPrTT=    3735 LenC2=    1033 LenP2D=    3183.
 LDataN:  DoStor=T MaxTD1= 4 Len=   56
 NBasis=    95 RedAO= T EigKep=  3.75D-03  NBF=    64    31
 NBsUse=    95 1.00D-06 EigRej= -1.00D+00 NBFU=    64    31
 Precomputing XC quadrature grid using
 IXCGrd= 4 IRadAn=           0 IRanWt=          -1 IRanGd=           0 AccXCQ= 0.00D+00.
 Generated NRdTot=       0 NPtTot=           0 NUsed=           0 NTot=          32
 NSgBfM=   100   100   100   100   100 MxSgAt=    10 MxSgA2=    10.
 Leave Link  302 at Fri Sep 11 13:44:58 2015, MaxMem=    33554432 cpu:         0.5
 (Enter /usr/local/research/Gaussian09/g09-revD.01/g09/l303.exe)
 DipDrv:  MaxL=1.
 Leave Link  303 at Fri Sep 11 13:44:58 2015, MaxMem=    33554432 cpu:         0.1
 (Enter /usr/local/research/Gaussian09/g09-revD.01/g09/l401.exe)
 Initial guess from the checkpoint file:  "6-ttc.chk"
 B after Tr=     0.000000    0.000000    0.000000
         Rot=    0.999555    0.000000    0.000000   -0.029837 Ang=  -3.42 deg.
 Guess basis will be translated and rotated to current coordinates.
 JPrj=2 DoOrth=T DoCkMO=T.
 Initial guess orbital symmetries:
       Occupied  (A') (A') (A') (A') (A') (A') (A') (A') (A') (A')
                 (A") (A') (A') (A") (A') (A') (A") (A") (A') (A')
       Virtual   (A') (A') (A') (A') (A') (A') (A') (A') (A') (A')
                 (A') (A') (A') (A') (A') (A') (A') (A') (A') (A')
                 (A') (A') (A') (A') (A') (A') (A') (A') (A') (A')
                 (A') (A') (A') (A') (A') (A') (A') (A') (A') (A')
                 (A') (A') (A') (A') (A') (A') (A') (A') (A") (A")
                 (A") (A") (A") (A") (A") (A") (A") (A") (A") (A")
                 (A") (A") (A") (A") (A") (A") (A") (A") (A") (A")
                 (A") (A") (A") (A") (A")
 The electronic state of the initial guess is 1-A'.
 Generating alternative initial guess.
 ExpMin= 1.22D-01 ExpMax= 2.27D+03 ExpMxC= 3.41D+02 IAcc=1 IRadAn=         1 AccDes= 0.00D+00
 Harris functional with IExCor= 1009 and IRadAn=       1 diagonalized for initial guess.
 HarFok:  IExCor= 1009 AccDes= 0.00D+00 IRadAn=         1 IDoV= 1 UseB2=F ITyADJ=14
 ICtDFT=  3500011 ScaDFX=  1.000000  1.000000  1.000000  1.000000
 FoFCou: FMM=F IPFlag=           0 FMFlag=      100000 FMFlg1=           0
         NFxFlg=           0 DoJE=T BraDBF=F KetDBF=T FulRan=T
         wScrn=  0.000000 ICntrl=     500 IOpCl=  0 I1Cent=   200000004 NGrid=           0
         NMat0=    1 NMatS0=      1 NMatT0=    0 NMatD0=    1 NMtDS0=    0 NMtDT0=    0
 Petite list used in FoFCou.
 Harris En= -283.963023290783    
 Leave Link  401 at Fri Sep 11 13:44:59 2015, MaxMem=    33554432 cpu:         0.8
 (Enter /usr/local/research/Gaussian09/g09-revD.01/g09/l502.exe)
 Closed shell SCF:
 Using DIIS extrapolation, IDIIS=  1040.
 Integral symmetry usage will be decided dynamically.
 Keep J ints in memory in symmetry-blocked form, NReq=15735152.
 IVT=       37446 IEndB=       37446 NGot=    33554432 MDV=    28218456
 LenX=    28218456 LenY=    28208015
 Requested convergence on RMS density matrix=1.00D-08 within  64 cycles.
 Requested convergence on MAX density matrix=1.00D-06.
 Requested convergence on             energy=1.00D-06.
 No special actions if energy rises.
 FoFCou: FMM=F IPFlag=           0 FMFlag=           0 FMFlg1=           0
         NFxFlg=           0 DoJE=F BraDBF=F KetDBF=F FulRan=T
         wScrn=  0.000000 ICntrl=     600 IOpCl=  0 I1Cent=           0 NGrid=           0
         NMat0=    1 NMatS0=   4560 NMatT0=    0 NMatD0=    1 NMtDS0=    0 NMtDT0=    0
 Petite list used in FoFCou.
 Integral accuracy reduced to 1.0D-05 until final iterations.

 Cycle   1  Pass 0  IDiag  1:
 E= -283.872025834747    
 DIIS: error= 6.29D-03 at cycle   1 NSaved=   1.
 NSaved= 1 IEnMin= 1 EnMin= -283.872025834747     IErMin= 1 ErrMin= 6.29D-03
 ErrMax= 6.29D-03  0.00D+00 EMaxC= 1.00D-01 BMatC= 7.07D-03 BMatP= 7.07D-03
 IDIUse=3 WtCom= 9.37D-01 WtEn= 6.29D-02
 Coeff-Com:  0.100D+01
 Coeff-En:   0.100D+01
 Coeff:      0.100D+01
 Gap=     0.541 Goal=   None    Shift=    0.000
 GapD=    0.541 DampG=2.000 DampE=1.000 DampFc=2.0000 IDamp=-1.
 RMSDP=1.69D-03 MaxDP=2.25D-02              OVMax= 2.69D-02

 Cycle   2  Pass 0  IDiag  1:
 E= -283.880701005122     Delta-E=       -0.008675170375 Rises=F Damp=F
 DIIS: error= 1.66D-03 at cycle   2 NSaved=   2.
 NSaved= 2 IEnMin= 2 EnMin= -283.880701005122     IErMin= 2 ErrMin= 1.66D-03
 ErrMax= 1.66D-03  0.00D+00 EMaxC= 1.00D-01 BMatC= 4.05D-04 BMatP= 7.07D-03
 IDIUse=3 WtCom= 9.83D-01 WtEn= 1.66D-02
 Coeff-Com:  0.929D-01 0.907D+00
 Coeff-En:   0.000D+00 0.100D+01
 Coeff:      0.913D-01 0.909D+00
 Gap=     0.166 Goal=   None    Shift=    0.000
 RMSDP=5.32D-04 MaxDP=9.47D-03 DE=-8.68D-03 OVMax= 1.44D-02

 Cycle   3  Pass 0  IDiag  1:
 E= -283.880332522389     Delta-E=        0.000368482733 Rises=F Damp=F
 DIIS: error= 2.88D-03 at cycle   3 NSaved=   3.
 NSaved= 3 IEnMin= 2 EnMin= -283.880701005122     IErMin= 2 ErrMin= 1.66D-03
 ErrMax= 2.88D-03  0.00D+00 EMaxC= 1.00D-01 BMatC= 8.27D-04 BMatP= 4.05D-04
 IDIUse=3 WtCom= 1.57D-01 WtEn= 8.43D-01
 Coeff-Com:  0.181D-01 0.590D+00 0.392D+00
 Coeff-En:   0.000D+00 0.656D+00 0.344D+00
 Coeff:      0.285D-02 0.645D+00 0.352D+00
 Gap=     0.160 Goal=   None    Shift=    0.000
 RMSDP=3.58D-04 MaxDP=8.05D-03 DE= 3.68D-04 OVMax= 1.32D-02

 Cycle   4  Pass 0  IDiag  1:
 E= -283.880956709089     Delta-E=       -0.000624186699 Rises=F Damp=F
 DIIS: error= 1.16D-03 at cycle   4 NSaved=   4.
 NSaved= 4 IEnMin= 4 EnMin= -283.880956709089     IErMin= 4 ErrMin= 1.16D-03
 ErrMax= 1.16D-03  0.00D+00 EMaxC= 1.00D-01 BMatC= 9.52D-05 BMatP= 4.05D-04
 IDIUse=3 WtCom= 9.88D-01 WtEn= 1.16D-02
 Coeff-Com:  0.247D-02 0.345D+00 0.256D+00 0.397D+00
 Coeff-En:   0.000D+00 0.000D+00 0.394D-01 0.961D+00
 Coeff:      0.244D-02 0.341D+00 0.253D+00 0.403D+00
 Gap=     0.158 Goal=   None    Shift=    0.000
 RMSDP=1.21D-04 MaxDP=2.54D-03 DE=-6.24D-04 OVMax= 4.01D-03

 Cycle   5  Pass 0  IDiag  1:
 E= -283.881029252987     Delta-E=       -0.000072543899 Rises=F Damp=F
 DIIS: error= 2.46D-04 at cycle   5 NSaved=   5.
 NSaved= 5 IEnMin= 5 EnMin= -283.881029252987     IErMin= 5 ErrMin= 2.46D-04
 ErrMax= 2.46D-04  0.00D+00 EMaxC= 1.00D-01 BMatC= 9.00D-06 BMatP= 9.52D-05
 IDIUse=3 WtCom= 9.98D-01 WtEn= 2.46D-03
 Coeff-Com:  0.607D-03 0.149D+00 0.118D+00 0.264D+00 0.468D+00
 Coeff-En:   0.000D+00 0.000D+00 0.000D+00 0.820D-01 0.918D+00
 Coeff:      0.605D-03 0.149D+00 0.118D+00 0.264D+00 0.469D+00
 Gap=     0.159 Goal=   None    Shift=    0.000
 RMSDP=3.32D-05 MaxDP=5.19D-04 DE=-7.25D-05 OVMax= 8.07D-04

 Cycle   6  Pass 0  IDiag  1:
 E= -283.881036871139     Delta-E=       -0.000007618152 Rises=F Damp=F
 DIIS: error= 3.76D-05 at cycle   6 NSaved=   6.
 NSaved= 6 IEnMin= 6 EnMin= -283.881036871139     IErMin= 6 ErrMin= 3.76D-05
 ErrMax= 3.76D-05  0.00D+00 EMaxC= 1.00D-01 BMatC= 2.53D-07 BMatP= 9.00D-06
 IDIUse=1 WtCom= 1.00D+00 WtEn= 0.00D+00
 Coeff-Com:  0.299D-03 0.553D-01 0.451D-01 0.114D+00 0.236D+00 0.549D+00
 Coeff:      0.299D-03 0.553D-01 0.451D-01 0.114D+00 0.236D+00 0.549D+00
 Gap=     0.158 Goal=   None    Shift=    0.000
 RMSDP=6.51D-06 MaxDP=1.21D-04 DE=-7.62D-06 OVMax= 1.24D-04

 Initial convergence to 1.0D-05 achieved.  Increase integral accuracy.
 Cycle   7  Pass 1  IDiag  1:
 E= -283.881019623475     Delta-E=        0.000017247664 Rises=F Damp=F
 DIIS: error= 1.70D-05 at cycle   1 NSaved=   1.
 NSaved= 1 IEnMin= 1 EnMin= -283.881019623475     IErMin= 1 ErrMin= 1.70D-05
 ErrMax= 1.70D-05  0.00D+00 EMaxC= 1.00D-01 BMatC= 4.48D-08 BMatP= 4.48D-08
 IDIUse=1 WtCom= 1.00D+00 WtEn= 0.00D+00
 Coeff-Com:  0.100D+01
 Coeff:      0.100D+01
 Gap=     0.158 Goal=   None    Shift=    0.000
 RMSDP=6.51D-06 MaxDP=1.21D-04 DE= 1.72D-05 OVMax= 1.33D-04

 Cycle   8  Pass 1  IDiag  1:
 E= -283.881019590722     Delta-E=        0.000000032753 Rises=F Damp=F
 DIIS: error= 2.68D-05 at cycle   2 NSaved=   2.
 NSaved= 2 IEnMin= 1 EnMin= -283.881019623475     IErMin= 1 ErrMin= 1.70D-05
 ErrMax= 2.68D-05  0.00D+00 EMaxC= 1.00D-01 BMatC= 9.72D-08 BMatP= 4.48D-08
 IDIUse=1 WtCom= 1.00D+00 WtEn= 0.00D+00
 Coeff-Com:  0.609D+00 0.391D+00
 Coeff:      0.609D+00 0.391D+00
 Gap=     0.158 Goal=   None    Shift=    0.000
 RMSDP=3.85D-06 MaxDP=7.48D-05 DE= 3.28D-08 OVMax= 1.40D-04

 Cycle   9  Pass 1  IDiag  1:
 E= -283.881019663743     Delta-E=       -0.000000073021 Rises=F Damp=F
 DIIS: error= 1.37D-05 at cycle   3 NSaved=   3.
 NSaved= 3 IEnMin= 3 EnMin= -283.881019663743     IErMin= 3 ErrMin= 1.37D-05
 ErrMax= 1.37D-05  0.00D+00 EMaxC= 1.00D-01 BMatC= 1.35D-08 BMatP= 4.48D-08
 IDIUse=1 WtCom= 1.00D+00 WtEn= 0.00D+00
 Coeff-Com:  0.245D+00 0.269D+00 0.486D+00
 Coeff:      0.245D+00 0.269D+00 0.486D+00
 Gap=     0.158 Goal=   None    Shift=    0.000
 RMSDP=1.41D-06 MaxDP=3.57D-05 DE=-7.30D-08 OVMax= 6.85D-05

 Cycle  10  Pass 1  IDiag  1:
 E= -283.881019670310     Delta-E=       -0.000000006567 Rises=F Damp=F
 DIIS: error= 7.33D-06 at cycle   4 NSaved=   4.
 NSaved= 4 IEnMin= 4 EnMin= -283.881019670310     IErMin= 4 ErrMin= 7.33D-06
 ErrMax= 7.33D-06  0.00D+00 EMaxC= 1.00D-01 BMatC= 4.90D-09 BMatP= 1.35D-08
 IDIUse=1 WtCom= 1.00D+00 WtEn= 0.00D+00
 Coeff-Com:  0.356D-01 0.122D+00 0.398D+00 0.445D+00
 Coeff:      0.356D-01 0.122D+00 0.398D+00 0.445D+00
 Gap=     0.158 Goal=   None    Shift=    0.000
 RMSDP=7.31D-07 MaxDP=1.93D-05 DE=-6.57D-09 OVMax= 2.79D-05

 Cycle  11  Pass 1  IDiag  1:
 E= -283.881019673917     Delta-E=       -0.000000003607 Rises=F Damp=F
 DIIS: error= 2.14D-06 at cycle   5 NSaved=   5.
 NSaved= 5 IEnMin= 5 EnMin= -283.881019673917     IErMin= 5 ErrMin= 2.14D-06
 ErrMax= 2.14D-06  0.00D+00 EMaxC= 1.00D-01 BMatC= 4.16D-10 BMatP= 4.90D-09
 IDIUse=1 WtCom= 1.00D+00 WtEn= 0.00D+00
 Coeff-Com:  0.301D-02 0.594D-01 0.219D+00 0.305D+00 0.413D+00
 Coeff:      0.301D-02 0.594D-01 0.219D+00 0.305D+00 0.413D+00
 Gap=     0.158 Goal=   None    Shift=    0.000
 RMSDP=2.76D-07 MaxDP=5.91D-06 DE=-3.61D-09 OVMax= 5.55D-06

 Cycle  12  Pass 1  IDiag  1:
 E= -283.881019674259     Delta-E=       -0.000000000342 Rises=F Damp=F
 DIIS: error= 2.75D-07 at cycle   6 NSaved=   6.
 NSaved= 6 IEnMin= 6 EnMin= -283.881019674259     IErMin= 6 ErrMin= 2.75D-07
 ErrMax= 2.75D-07  0.00D+00 EMaxC= 1.00D-01 BMatC= 1.37D-11 BMatP= 4.16D-10
 IDIUse=1 WtCom= 1.00D+00 WtEn= 0.00D+00
 Coeff-Com: -0.702D-03 0.249D-01 0.923D-01 0.140D+00 0.226D+00 0.517D+00
 Coeff:     -0.702D-03 0.249D-01 0.923D-01 0.140D+00 0.226D+00 0.517D+00
 Gap=     0.158 Goal=   None    Shift=    0.000
 RMSDP=4.39D-08 MaxDP=7.21D-07 DE=-3.42D-10 OVMax= 8.37D-07

 Cycle  13  Pass 1  IDiag  1:
 E= -283.881019674268     Delta-E=       -0.000000000009 Rises=F Damp=F
 DIIS: error= 7.90D-08 at cycle   7 NSaved=   7.
 NSaved= 7 IEnMin= 7 EnMin= -283.881019674268     IErMin= 7 ErrMin= 7.90D-08
 ErrMax= 7.90D-08  0.00D+00 EMaxC= 1.00D-01 BMatC= 9.46D-13 BMatP= 1.37D-11
 IDIUse=1 WtCom= 1.00D+00 WtEn= 0.00D+00
 Coeff-Com: -0.678D-03 0.981D-02 0.366D-01 0.581D-01 0.966D-01 0.285D+00
 Coeff-Com:  0.514D+00
 Coeff:     -0.678D-03 0.981D-02 0.366D-01 0.581D-01 0.966D-01 0.285D+00
 Coeff:      0.514D+00
 Gap=     0.158 Goal=   None    Shift=    0.000
 RMSDP=1.33D-08 MaxDP=2.64D-07 DE=-8.92D-12 OVMax= 2.90D-07

 Cycle  14  Pass 1  IDiag  1:
 E= -283.881019674269     Delta-E=       -0.000000000001 Rises=F Damp=F
 DIIS: error= 2.18D-08 at cycle   8 NSaved=   8.
 NSaved= 8 IEnMin= 8 EnMin= -283.881019674269     IErMin= 8 ErrMin= 2.18D-08
 ErrMax= 2.18D-08  0.00D+00 EMaxC= 1.00D-01 BMatC= 4.80D-14 BMatP= 9.46D-13
 IDIUse=1 WtCom= 1.00D+00 WtEn= 0.00D+00
 Coeff-Com: -0.187D-03 0.183D-02 0.696D-02 0.117D-01 0.206D-01 0.741D-01
 Coeff-Com:  0.236D+00 0.649D+00
 Coeff:     -0.187D-03 0.183D-02 0.696D-02 0.117D-01 0.206D-01 0.741D-01
 Coeff:      0.236D+00 0.649D+00
 Gap=     0.158 Goal=   None    Shift=    0.000
 RMSDP=3.31D-09 MaxDP=5.51D-08 DE=-1.02D-12 OVMax= 7.90D-08

 SCF Done:  E(RPBE-PBE) =  -283.881019674     A.U. after   14 cycles
            NFock= 14  Conv=0.33D-08     -V/T= 2.0086
 KE= 2.814560036844D+02 PE=-1.019226275658D+03 EE= 2.770970687823D+02
 Leave Link  502 at Fri Sep 11 13:45:14 2015, MaxMem=    33554432 cpu:        14.6
 (Enter /usr/local/research/Gaussian09/g09-revD.01/g09/l508.exe)
 QCSCF skips out because SCF is already converged.
 Leave Link  508 at Fri Sep 11 13:45:14 2015, MaxMem=    33554432 cpu:         0.0
 (Enter /usr/local/research/Gaussian09/g09-revD.01/g09/l701.exe)
 Compute integral first derivatives.
 ... and contract with generalized density number  0.
   2 Symmetry operations used in ECPInt.
 ECPInt:  NShTT=    1035 NPrTT=    3735 LenC2=    1033 LenP2D=    3183.
 LDataN:  DoStor=T MaxTD1= 5 Len=  102
 Leave Link  701 at Fri Sep 11 13:45:14 2015, MaxMem=    33554432 cpu:         0.3
 (Enter /usr/local/research/Gaussian09/g09-revD.01/g09/l702.exe)
 L702 exits ... SP integral derivatives will be done elsewhere.
 Leave Link  702 at Fri Sep 11 13:45:14 2015, MaxMem=    33554432 cpu:         0.0
 (Enter /usr/local/research/Gaussian09/g09-revD.01/g09/l703.exe)
 Compute integral first derivatives, UseDBF=F ICtDFT=           0.
 Integral derivatives from FoFJK, PRISM(SPDF).
 Calling FoFJK, ICntrl=      2527 FMM=F ISym2X=1 I1Cent= 0 IOpClX= 0 NMat=1 NMatS=1 NMatT=0.
 FoFJK:  IHMeth= 1 ICntrl=    2527 DoSepK=F KAlg= 0 I1Cent=   0 FoldK=F
 IRaf=         0 NMat=   1 IRICut=       1 DoRegI=T DoRafI=F ISym2E= 1.
 FoFCou: FMM=F IPFlag=           0 FMFlag=      100000 FMFlg1=         800
         NFxFlg=           0 DoJE=F BraDBF=F KetDBF=F FulRan=T
         wScrn=  0.000000 ICntrl=    2527 IOpCl=  0 I1Cent=           0 NGrid=           0
         NMat0=    1 NMatS0=      1 NMatT0=    0 NMatD0=    1 NMtDS0=    0 NMtDT0=    0
 Petite list used in FoFCou.
 Leave Link  703 at Fri Sep 11 13:45:19 2015, MaxMem=    33554432 cpu:         4.6
 (Enter /usr/local/research/Gaussian09/g09-revD.01/g09/l716.exe)
 Dipole        =-1.08332179D+00-8.47991065D-01-4.42778003D-16
 ***** Axes restored to original set *****
 -------------------------------------------------------------------
 Center     Atomic                   Forces (Hartrees/Bohr)
 Number     Number              X              Y              Z
 -------------------------------------------------------------------
      1        7          -0.052877758    0.022736405    0.000000000
      2        6           0.013357579   -0.007810746    0.000000000
      3        1           0.021840927   -0.007205860   -0.002636852
      4        1           0.021840927   -0.007205860    0.002636852
      5        6           0.019740218    0.018518410    0.000000000
      6        1          -0.004078000   -0.000033756    0.001930231
      7        1          -0.004078000   -0.000033756   -0.001930231
      8        8          -0.016834882   -0.004272223    0.000000000
      9        8           0.006270107   -0.014487597    0.000000000
     10        1          -0.005181118   -0.000205018    0.000000000
 -------------------------------------------------------------------
 Cartesian Forces:  Max     0.052877758 RMS     0.014113018
 Leave Link  716 at Fri Sep 11 13:45:19 2015, MaxMem=    33554432 cpu:         0.1
 (Enter /usr/local/research/Gaussian09/g09-revD.01/g09/l103.exe)

 GradGradGradGradGradGradGradGradGradGradGradGradGradGradGradGradGradGrad
 Berny optimization.
 Using GEDIIS/GDIIS optimizer.
 FormGI is forming the generalized inverse of G from B-inverse, IUseBI=4.
 Internal  Forces:  Max     0.025218873 RMS     0.007396951
 Search for a local minimum.
 Step number   2 out of a maximum of   46
 All quantities printed in internal units (Hartrees-Bohrs-Radians)
 RMS Force = .73970D-02 SwitMx=.10000D-02 MixMth= 1
 Mixed Optimization -- RFO/linear search
 Update second derivatives using D2CorX and points    1    2
 DE= -2.17D-02 DEPred=-1.99D-02 R= 1.09D+00
 TightC=F SS=  1.41D+00  RLast= 3.26D-01 DXNew= 5.0454D-01 9.7773D-01
 Trust test= 1.09D+00 RLast= 3.26D-01 DXMaxT set to 5.05D-01
 ITU=  1  0
 Use linear search instead of GDIIS.
     Eigenvalues ---    0.00477   0.00665   0.01044   0.01296   0.01740
     Eigenvalues ---    0.04880   0.06603   0.10251   0.11863   0.13424
     Eigenvalues ---    0.16000   0.16202   0.22547   0.24421   0.26582
     Eigenvalues ---    0.30593   0.32548   0.32551   0.38008   0.42779
     Eigenvalues ---    0.51261   0.52472   0.55652   0.81690
 RFO step:  Lambda=-1.02709808D-02 EMin= 4.76679032D-03
 Quartic linear search produced a step of  0.62186.
 Iteration  1 RMS(Cart)=  0.05853948 RMS(Int)=  0.01512364
 Iteration  2 RMS(Cart)=  0.01653841 RMS(Int)=  0.00222414
 Iteration  3 RMS(Cart)=  0.00039990 RMS(Int)=  0.00218476
 Iteration  4 RMS(Cart)=  0.00000075 RMS(Int)=  0.00218476
 ITry= 1 IFail=0 DXMaxC= 1.65D-01 DCOld= 1.00D+10 DXMaxT= 5.05D-01 DXLimC= 3.00D+00 Rises=F
 ClnCor:  largest displacement from symmetrization is 3.57D-09 for atom    10.
 Variable       Old X    -DE/DX   Delta X   Delta X   Delta X     New X
                                 (Linear)    (Quad)   (Total)
    R1        2.74793  -0.01228   0.00607  -0.05433  -0.04826   2.69967
    R2        1.89944   0.00693   0.02879  -0.00166   0.02713   1.92657
    R3        1.89944   0.00693   0.02879  -0.00166   0.02713   1.92657
    R4        2.91323   0.00135   0.02320  -0.01245   0.01076   2.92399
    R5        2.10395   0.00081   0.00341   0.00103   0.00443   2.10838
    R6        2.10395   0.00081   0.00341   0.00103   0.00443   2.10838
    R7        2.30369  -0.01726  -0.04619   0.00161  -0.04458   2.25911
    R8        2.61751  -0.01244  -0.05268  -0.00461  -0.05730   2.56021
    R9        1.84121   0.00497   0.01693   0.00070   0.01763   1.85885
    A1        1.94162   0.01262   0.05797   0.01931   0.07104   2.01267
    A2        1.94162   0.01262   0.05797   0.01931   0.07104   2.01267
    A3        2.30206  -0.02522  -0.11995  -0.17547  -0.30392   1.99814
    A4        1.99616   0.00090   0.04311  -0.02316   0.01907   2.01523
    A5        1.91899   0.00079   0.00421   0.00848   0.01232   1.93131
    A6        1.91899   0.00079   0.00421   0.00848   0.01232   1.93131
    A7        1.86626   0.00016  -0.01018   0.01382   0.00266   1.86892
    A8        1.86626   0.00016  -0.01018   0.01382   0.00266   1.86892
    A9        1.89376  -0.00307  -0.03314  -0.02197  -0.05536   1.83840
   A10        2.16180   0.00303   0.04194  -0.01736   0.02458   2.18637
   A11        2.04934  -0.01049  -0.02799  -0.04001  -0.06801   1.98134
   A12        2.07204   0.00746  -0.01394   0.05737   0.04343   2.11547
   A13        1.88600   0.00268  -0.01560   0.03936   0.02377   1.90977
    D1        1.36937  -0.00353  -0.02083  -0.15498  -0.17408   1.19529
    D2       -2.81421  -0.00212  -0.00299  -0.14671  -0.14758  -2.96180
    D3       -0.73024  -0.00493  -0.03868  -0.16324  -0.20057  -0.93081
    D4       -1.36937   0.00353   0.02083   0.15498   0.17408  -1.19529
    D5        0.73024   0.00493   0.03868   0.16324   0.20057   0.93081
    D6        2.81421   0.00212   0.00299   0.14671   0.14758   2.96180
    D7        0.00000   0.00000   0.00000   0.00000   0.00000   0.00000
    D8        3.14159   0.00000   0.00000   0.00000   0.00000   3.14159
    D9       -2.12872  -0.00169  -0.02478  -0.00593  -0.03052  -2.15924
   D10        1.01287  -0.00169  -0.02478  -0.00593  -0.03052   0.98236
   D11        2.12872   0.00169   0.02478   0.00593   0.03052   2.15924
   D12       -1.01287   0.00169   0.02478   0.00593   0.03052  -0.98236
   D13        0.00000   0.00000   0.00000   0.00000   0.00000   0.00000
   D14        3.14159   0.00000   0.00000   0.00000   0.00000   3.14159
         Item               Value     Threshold  Converged?
 Maximum Force            0.025219     0.000450     NO 
 RMS     Force            0.007397     0.000300     NO 
 Maximum Displacement     0.165105     0.001800     NO 
 RMS     Displacement     0.064809     0.001200     NO 
 Predicted change in Energy=-9.781651D-03
 Lowest energy point so far.  Saving SCF results.
 GradGradGradGradGradGradGradGradGradGradGradGradGradGradGradGradGradGrad

 Leave Link  103 at Fri Sep 11 13:45:19 2015, MaxMem=    33554432 cpu:         0.0
 (Enter /usr/local/research/Gaussian09/g09-revD.01/g09/l202.exe)
                          Input orientation:                          
 ---------------------------------------------------------------------
 Center     Atomic      Atomic             Coordinates (Angstroms)
 Number     Number       Type             X           Y           Z
 ---------------------------------------------------------------------
      1          7           0        0.079174   -1.885307    0.000000
      2          6           0       -0.776293   -0.741156    0.000000
      3          1           0        0.610925   -2.032079    0.857364
      4          1           0        0.610925   -2.032079   -0.857364
      5          6           0       -0.055823    0.628180    0.000000
      6          1           0       -1.452768   -0.755535   -0.887117
      7          1           0       -1.452768   -0.755535    0.887117
      8          8           0        1.129368    0.784613    0.000000
      9          8           0       -0.903398    1.685115    0.000000
     10          1           0       -1.831747    1.359919    0.000000
 ---------------------------------------------------------------------
                    Distance matrix (angstroms):
                    1          2          3          4          5
     1  N    0.000000
     2  C    1.428603   0.000000
     3  H    1.019496   2.079886   0.000000
     4  H    1.019496   2.079886   1.714727   0.000000
     5  C    2.517110   1.547307   2.873430   2.873430   0.000000
     6  H    2.100049   1.115707   2.988579   2.426783   2.157105
     7  H    2.100049   1.115707   2.426783   2.988579   2.157105
     8  O    2.869039   2.441213   2.989584   2.989584   1.195470
     9  O    3.703156   2.429599   4.104361   4.104361   1.354805
    10  H    3.766047   2.351276   4.267009   4.267009   1.920768
                    6          7          8          9         10
     6  H    0.000000
     7  H    1.774234   0.000000
     8  O    3.134719   3.134719   0.000000
     9  O    2.654348   2.654348   2.223296   0.000000
    10  H    2.325027   2.325027   3.016485   0.983659   0.000000
 Stoichiometry    C2H5NO2
 Framework group  CS[SG(C2HNO2),X(H4)]
 Deg. of freedom    15
 Full point group                 CS      NOp   2
 RotChk:  IX=0 Diff= 8.87D-02
 Largest Abelian subgroup         CS      NOp   2
 Largest concise Abelian subgroup CS      NOp   2
                         Standard orientation:                         
 ---------------------------------------------------------------------
 Center     Atomic      Atomic             Coordinates (Angstroms)
 Number     Number       Type             X           Y           Z
 ---------------------------------------------------------------------
      1          7           0        0.546710   -1.862425    0.000000
      2          6           0       -0.485350   -0.874620    0.000000
      3          1           0        1.095362   -1.919706    0.857364
      4          1           0        1.095362   -1.919706   -0.857364
      5          6           0        0.000000    0.594596    0.000000
      6          1           0       -1.150239   -1.000106   -0.887117
      7          1           0       -1.150239   -1.000106    0.887117
      8          8           0        1.143300    0.943900    0.000000
      9          8           0       -1.009925    1.497672    0.000000
     10          1           0       -1.872117    1.024163    0.000000
 ---------------------------------------------------------------------
 Rotational constants (GHZ):     10.0098541      3.8647046      2.8858989
 Leave Link  202 at Fri Sep 11 13:45:19 2015, MaxMem=    33554432 cpu:         0.0
 (Enter /usr/local/research/Gaussian09/g09-revD.01/g09/l301.exe)
 Standard basis: def2SVP (5D, 7F)
 Ernie: Thresh=  0.10000D-02 Tol=  0.10000D-05 Strict=F.
 There are    69 symmetry adapted cartesian basis functions of A'  symmetry.
 There are    31 symmetry adapted cartesian basis functions of A"  symmetry.
 There are    64 symmetry adapted basis functions of A'  symmetry.
 There are    31 symmetry adapted basis functions of A"  symmetry.
    95 basis functions,   160 primitive gaussians,   100 cartesian basis functions
    20 alpha electrons       20 beta electrons
       nuclear repulsion energy       178.3918507414 Hartrees.
 IExCor= 1009 DFT=T Ex=PBE Corr=PBE ExCW=0 ScaHFX=  0.000000
 ScaDFX=  1.000000  1.000000  1.000000  1.000000 ScalE2=  1.000000  1.000000
 IRadAn=      0 IRanWt=     -1 IRanGd=            0 ICorTp=0 IEmpDi=  4
 NAtoms=   10 NActive=   10 NUniq=    8 SFac= 1.56D+00 NAtFMM=   60 NAOKFM=F Big=F
 Integral buffers will be    131072 words long.
 Raffenetti 2 integral format.
 Two-electron integral symmetry is turned on.
 Leave Link  301 at Fri Sep 11 13:45:19 2015, MaxMem=    33554432 cpu:         0.1
 (Enter /usr/local/research/Gaussian09/g09-revD.01/g09/l302.exe)
 NPDir=0 NMtPBC=     1 NCelOv=     1 NCel=       1 NClECP=     1 NCelD=      1
         NCelK=      1 NCelE2=     1 NClLst=     1 CellRange=     0.0.
 One-electron integrals computed using PRISM.
 One-electron integral symmetry used in STVInt
   2 Symmetry operations used in ECPInt.
 ECPInt:  NShTT=    1035 NPrTT=    3735 LenC2=    1033 LenP2D=    3188.
 LDataN:  DoStor=T MaxTD1= 4 Len=   56
 NBasis=    95 RedAO= T EigKep=  3.84D-03  NBF=    64    31
 NBsUse=    95 1.00D-06 EigRej= -1.00D+00 NBFU=    64    31
 Precomputing XC quadrature grid using
 IXCGrd= 4 IRadAn=           0 IRanWt=          -1 IRanGd=           0 AccXCQ= 0.00D+00.
 Generated NRdTot=       0 NPtTot=           0 NUsed=           0 NTot=          32
 NSgBfM=   100   100   100   100   100 MxSgAt=    10 MxSgA2=    10.
 Leave Link  302 at Fri Sep 11 13:45:20 2015, MaxMem=    33554432 cpu:         0.5
 (Enter /usr/local/research/Gaussian09/g09-revD.01/g09/l303.exe)
 DipDrv:  MaxL=1.
 Leave Link  303 at Fri Sep 11 13:45:20 2015, MaxMem=    33554432 cpu:         0.1
 (Enter /usr/local/research/Gaussian09/g09-revD.01/g09/l401.exe)
 Initial guess from the checkpoint file:  "6-ttc.chk"
 B after Tr=     0.000000    0.000000    0.000000
         Rot=    0.999677    0.000000    0.000000   -0.025430 Ang=  -2.91 deg.
 Guess basis will be translated and rotated to current coordinates.
 JPrj=2 DoOrth=T DoCkMO=T.
 Initial guess orbital symmetries:
       Occupied  (A') (A') (A') (A') (A') (A') (A') (A') (A') (A')
                 (A") (A') (A') (A") (A') (A") (A') (A") (A') (A')
       Virtual   (A') (A') (A') (A') (A') (A') (A') (A') (A') (A')
                 (A') (A') (A') (A') (A') (A') (A') (A') (A') (A')
                 (A') (A') (A') (A') (A') (A') (A') (A') (A') (A')
                 (A') (A') (A') (A') (A') (A') (A') (A') (A') (A')
                 (A') (A') (A') (A') (A') (A') (A') (A') (A") (A")
                 (A") (A") (A") (A") (A") (A") (A") (A") (A") (A")
                 (A") (A") (A") (A") (A") (A") (A") (A") (A") (A")
                 (A") (A") (A") (A") (A")
 The electronic state of the initial guess is 1-A'.
 Generating alternative initial guess.
 ExpMin= 1.22D-01 ExpMax= 2.27D+03 ExpMxC= 3.41D+02 IAcc=1 IRadAn=         1 AccDes= 0.00D+00
 Harris functional with IExCor= 1009 and IRadAn=       1 diagonalized for initial guess.
 HarFok:  IExCor= 1009 AccDes= 0.00D+00 IRadAn=         1 IDoV= 1 UseB2=F ITyADJ=14
 ICtDFT=  3500011 ScaDFX=  1.000000  1.000000  1.000000  1.000000
 FoFCou: FMM=F IPFlag=           0 FMFlag=      100000 FMFlg1=           0
         NFxFlg=           0 DoJE=T BraDBF=F KetDBF=T FulRan=T
         wScrn=  0.000000 ICntrl=     500 IOpCl=  0 I1Cent=   200000004 NGrid=           0
         NMat0=    1 NMatS0=      1 NMatT0=    0 NMatD0=    1 NMtDS0=    0 NMtDT0=    0
 Petite list used in FoFCou.
 Harris En= -283.971957620138    
 Leave Link  401 at Fri Sep 11 13:45:20 2015, MaxMem=    33554432 cpu:         0.7
 (Enter /usr/local/research/Gaussian09/g09-revD.01/g09/l502.exe)
 Closed shell SCF:
 Using DIIS extrapolation, IDIIS=  1040.
 Integral symmetry usage will be decided dynamically.
 Keep J ints in memory in symmetry-blocked form, NReq=15735152.
 IVT=       37446 IEndB=       37446 NGot=    33554432 MDV=    28218456
 LenX=    28218456 LenY=    28208015
 Requested convergence on RMS density matrix=1.00D-08 within  64 cycles.
 Requested convergence on MAX density matrix=1.00D-06.
 Requested convergence on             energy=1.00D-06.
 No special actions if energy rises.
 FoFCou: FMM=F IPFlag=           0 FMFlag=           0 FMFlg1=           0
         NFxFlg=           0 DoJE=F BraDBF=F KetDBF=F FulRan=T
         wScrn=  0.000000 ICntrl=     600 IOpCl=  0 I1Cent=           0 NGrid=           0
         NMat0=    1 NMatS0=   4560 NMatT0=    0 NMatD0=    1 NMtDS0=    0 NMtDT0=    0
 Petite list used in FoFCou.
 Integral accuracy reduced to 1.0D-05 until final iterations.

 Cycle   1  Pass 0  IDiag  1:
 E= -283.884245388384    
 DIIS: error= 7.02D-03 at cycle   1 NSaved=   1.
 NSaved= 1 IEnMin= 1 EnMin= -283.884245388384     IErMin= 1 ErrMin= 7.02D-03
 ErrMax= 7.02D-03  0.00D+00 EMaxC= 1.00D-01 BMatC= 5.80D-03 BMatP= 5.80D-03
 IDIUse=3 WtCom= 9.30D-01 WtEn= 7.02D-02
 Coeff-Com:  0.100D+01
 Coeff-En:   0.100D+01
 Coeff:      0.100D+01
 Gap=     0.538 Goal=   None    Shift=    0.000
 GapD=    0.538 DampG=2.000 DampE=1.000 DampFc=2.0000 IDamp=-1.
 RMSDP=1.77D-03 MaxDP=2.30D-02              OVMax= 3.63D-02

 Cycle   2  Pass 0  IDiag  1:
 E= -283.890838973109     Delta-E=       -0.006593584725 Rises=F Damp=F
 DIIS: error= 2.53D-03 at cycle   2 NSaved=   2.
 NSaved= 2 IEnMin= 2 EnMin= -283.890838973109     IErMin= 2 ErrMin= 2.53D-03
 ErrMax= 2.53D-03  0.00D+00 EMaxC= 1.00D-01 BMatC= 6.51D-04 BMatP= 5.80D-03
 IDIUse=3 WtCom= 9.75D-01 WtEn= 2.53D-02
 Coeff-Com:  0.130D+00 0.870D+00
 Coeff-En:   0.000D+00 0.100D+01
 Coeff:      0.127D+00 0.873D+00
 Gap=     0.173 Goal=   None    Shift=    0.000
 RMSDP=8.04D-04 MaxDP=1.91D-02 DE=-6.59D-03 OVMax= 3.01D-02

 Cycle   3  Pass 0  IDiag  1:
 E= -283.889108246939     Delta-E=        0.001730726171 Rises=F Damp=F
 DIIS: error= 5.25D-03 at cycle   3 NSaved=   3.
 NSaved= 3 IEnMin= 2 EnMin= -283.890838973109     IErMin= 2 ErrMin= 2.53D-03
 ErrMax= 5.25D-03  0.00D+00 EMaxC= 1.00D-01 BMatC= 2.82D-03 BMatP= 6.51D-04
 IDIUse=3 WtCom= 1.21D-01 WtEn= 8.79D-01
 Coeff-Com:  0.175D-01 0.673D+00 0.310D+00
 Coeff-En:   0.000D+00 0.753D+00 0.247D+00
 Coeff:      0.212D-02 0.743D+00 0.255D+00
 Gap=     0.170 Goal=   None    Shift=    0.000
 RMSDP=4.47D-04 MaxDP=1.12D-02 DE= 1.73D-03 OVMax= 1.84D-02

 Cycle   4  Pass 0  IDiag  1:
 E= -283.891280013856     Delta-E=       -0.002171766917 Rises=F Damp=F
 DIIS: error= 9.52D-04 at cycle   4 NSaved=   4.
 NSaved= 4 IEnMin= 4 EnMin= -283.891280013856     IErMin= 4 ErrMin= 9.52D-04
 ErrMax= 9.52D-04  0.00D+00 EMaxC= 1.00D-01 BMatC= 9.95D-05 BMatP= 6.51D-04
 IDIUse=3 WtCom= 9.90D-01 WtEn= 9.52D-03
 Coeff-Com:  0.372D-03 0.352D+00 0.738D-01 0.573D+00
 Coeff-En:   0.000D+00 0.151D+00 0.000D+00 0.849D+00
 Coeff:      0.368D-03 0.350D+00 0.731D-01 0.576D+00
[...]
         6         0.0000      0.0000     -0.4728
         7        -0.0009      0.0499      0.0000
         8        -0.1513     -0.3844      0.0000
         9         0.0000      0.0000     -0.3232
        10         0.0000      0.0000     -0.1079
        11         0.2101     -0.0915      0.0000
        12         0.1102     -0.1480      0.0000
        13         0.0000      0.0000      0.3761
        14        -0.6801      0.3327      0.0000
        15         0.0000      0.0000     -0.3065
        16         0.6094     -0.0977      0.0000
        17         0.7271      0.0970      0.0000
        18        -0.1271      0.8901      0.0000
        19         0.0000      0.0000      0.8328
        20         0.0000      0.0000      0.6891
        21        -0.0697      0.0596      0.0000
        22        -0.4510      0.1949      0.0000
        23        -0.3924     -1.0949      0.0000
        24         0.0000      0.0000     -0.0379
 Ground to excited state transition velocity quadrupole moments (Au):
       state          XX          YY          ZZ          XY          XZ          YZ
         1         0.0000      0.0000      0.0000      0.0000     -0.0742      0.0176
         2         0.0000      0.0000      0.0000      0.0000     -0.0384     -0.0489
         3         0.1386     -0.2686      0.0340      0.0855      0.0000      0.0000
         4        -0.2129     -0.0045      0.0223      0.1963      0.0000      0.0000
         5         0.3334     -0.6781      0.1122     -0.0933      0.0000      0.0000
         6         0.1290      0.1971      0.0177      0.0144      0.0000      0.0000
         7         0.0000      0.0000      0.0000      0.0000     -0.0161     -0.1010
         8         0.0000      0.0000      0.0000      0.0000      0.3247     -0.1866
         9        -0.0639      0.3161      0.0677      0.2911      0.0000      0.0000
        10         0.0800     -0.3451      0.0735      0.5956      0.0000      0.0000
        11         0.0000      0.0000      0.0000      0.0000     -0.0415     -0.1304
        12         0.0000      0.0000      0.0000      0.0000      0.0013      0.1013
        13         0.0975      0.0382     -0.1025     -0.0961      0.0000      0.0000
        14         0.0000      0.0000      0.0000      0.0000     -0.0152     -0.1451
        15        -0.1589     -0.2486     -0.1858      0.1006      0.0000      0.0000
        16         0.0000      0.0000      0.0000      0.0000      0.2200      0.2810
        17         0.0000      0.0000      0.0000      0.0000     -0.4152      0.1272
        18         0.0000      0.0000      0.0000      0.0000     -0.3446     -0.1871
        19         0.5462     -0.3970     -0.0087      0.0311      0.0000      0.0000
        20         0.3416     -0.0433     -0.0207     -0.3620      0.0000      0.0000
        21         0.0000      0.0000      0.0000      0.0000     -0.0677      0.0940
        22         0.0000      0.0000      0.0000      0.0000     -0.0495     -0.1736
        23         0.0000      0.0000      0.0000      0.0000      0.7248     -0.0599
        24         0.2794      0.3174      0.0737     -0.1407      0.0000      0.0000
 <0|del|b> * <b|rxdel|0> + <0|del|b> * <b|delr+rdel|0>
 Rotatory Strengths (R) in cgs (10**-40 erg-esu-cm/Gauss)
       state          XX          YY          ZZ    R(velocity)    E-M Angle
         1         0.0000      0.0000      0.0000      0.0000       90.00
         2         0.0000      0.0000      0.0000      0.0000       90.00
         3         0.0000      0.0000      0.0000      0.0000       90.00
         4         0.0000      0.0000      0.0000      0.0000       90.00
         5         0.0000      0.0000      0.0000      0.0000       90.00
         6         0.0000      0.0000      0.0000      0.0000       90.00
         7         0.0000      0.0000      0.0000      0.0000       90.00
         8         0.0000      0.0000      0.0000      0.0000       90.00
         9         0.0000      0.0000      0.0000      0.0000       90.00
        10         0.0000      0.0000      0.0000      0.0000       90.00
        11         0.0000      0.0000      0.0000      0.0000       90.00
        12         0.0000      0.0000      0.0000      0.0000       90.00
        13         0.0000      0.0000      0.0000      0.0000       90.00
        14         0.0000      0.0000      0.0000      0.0000       90.00
        15         0.0000      0.0000      0.0000      0.0000       90.00
        16         0.0000      0.0000      0.0000      0.0000       90.00
        17         0.0000      0.0000      0.0000      0.0000       90.00
        18         0.0000      0.0000      0.0000      0.0000       90.00
        19         0.0000      0.0000      0.0000      0.0000       90.00
        20         0.0000      0.0000      0.0000      0.0000       90.00
        21         0.0000      0.0000      0.0000      0.0000       90.00
        22         0.0000      0.0000      0.0000      0.0000       90.00
        23         0.0000      0.0000      0.0000      0.0000       90.00
        24         0.0000      0.0000      0.0000      0.0000       90.00
 1/2[<0|r|b>*<b|rxdel|0> + (<0|rxdel|b>*<b|r|0>)*]
 Rotatory Strengths (R) in cgs (10**-40 erg-esu-cm/Gauss)
       state          XX          YY          ZZ     R(length)
         1         0.0000      0.0000      0.0000      0.0000
         2         0.0000      0.0000      0.0000      0.0000
         3         0.0000      0.0000      0.0000      0.0000
         4         0.0000      0.0000      0.0000      0.0000
         5         0.0000      0.0000      0.0000      0.0000
         6         0.0000      0.0000      0.0000      0.0000
         7         0.0000      0.0000      0.0000      0.0000
         8         0.0000      0.0000      0.0000      0.0000
         9         0.0000      0.0000      0.0000      0.0000
        10         0.0000      0.0000      0.0000      0.0000
        11         0.0000      0.0000      0.0000      0.0000
        12         0.0000      0.0000      0.0000      0.0000
        13         0.0000      0.0000      0.0000      0.0000
        14         0.0000      0.0000      0.0000      0.0000
        15         0.0000      0.0000      0.0000      0.0000
        16         0.0000      0.0000      0.0000      0.0000
        17         0.0000      0.0000      0.0000      0.0000
        18         0.0000      0.0000      0.0000      0.0000
        19         0.0000      0.0000      0.0000      0.0000
        20         0.0000      0.0000      0.0000      0.0000
        21         0.0000      0.0000      0.0000      0.0000
        22         0.0000      0.0000      0.0000      0.0000
        23         0.0000      0.0000      0.0000      0.0000
        24         0.0000      0.0000      0.0000      0.0000
  1/2[<0|del|b>*<b|r|0> + (<0|r|b>*<b|del|0>)*] (Au)
       state          X           Y           Z        Dip. S.   Osc.(frdel)
         1         0.0000      0.0000     -0.0010      0.0010      0.0007
         2         0.0000      0.0000     -0.0020      0.0020      0.0013
         3        -0.0026      0.0000      0.0000      0.0026      0.0018
         4        -0.0102     -0.0121      0.0000      0.0223      0.0149
         5        -0.0049      0.0005      0.0000      0.0044      0.0029
         6        -0.0019     -0.0490      0.0000      0.0509      0.0339
         7         0.0000      0.0000     -0.0185      0.0185      0.0123
         8         0.0000      0.0000     -0.0101      0.0101      0.0067
         9        -0.0243     -0.0005      0.0000      0.0248      0.0166
        10        -0.0478     -0.0090      0.0000      0.0568      0.0379
        11         0.0000      0.0000     -0.0034      0.0034      0.0023
        12         0.0000      0.0000     -0.0023      0.0023      0.0015
        13         0.0000     -0.0336      0.0000      0.0336      0.0224
        14         0.0000      0.0000     -0.0019      0.0019      0.0013
        15        -0.1768     -0.0306      0.0000      0.2074      0.1383
        16         0.0000      0.0000     -0.0142      0.0142      0.0095
        17         0.0000      0.0000     -0.0055      0.0055      0.0037
        18         0.0000      0.0000     -0.0001      0.0001      0.0000
        19        -0.0267     -0.0067      0.0000      0.0334      0.0223
        20        -0.0506     -0.0030      0.0000      0.0536      0.0357
        21         0.0000      0.0000      0.0005     -0.0005     -0.0003
        22         0.0000      0.0000     -0.0012      0.0012      0.0008
        23         0.0000      0.0000      0.0000      0.0000      0.0000
        24        -0.0483     -0.0044      0.0000      0.0527      0.0351

 Excitation energies and oscillator strengths:
 
 Excited State   1:      Singlet-A"     4.8556 eV  255.34 nm  f=0.0008  <S**2>=0.000
      20 -> 21         0.70341
 This state for optimization and/or second-order correction.
 Total Energy, E(TD-HF/TD-KS) =  -283.717099114    
 Copying the excited state density for this state as the 1-particle RhoCI density.
 
 Excited State   2:      Singlet-A"     5.7195 eV  216.77 nm  f=0.0008  <S**2>=0.000
      19 -> 21         0.70363
 
 Excited State   3:      Singlet-A'     5.7435 eV  215.87 nm  f=0.0026  <S**2>=0.000
      20 -> 22         0.70654
 
 Excited State   4:      Singlet-A'     6.5218 eV  190.11 nm  f=0.0125  <S**2>=0.000
      19 -> 22         0.70056
 
 Excited State   5:      Singlet-A'     6.6834 eV  185.51 nm  f=0.0019  <S**2>=0.000
      20 -> 23         0.70433
 
 Excited State   6:      Singlet-A'     7.4282 eV  166.91 nm  f=0.0309  <S**2>=0.000
      18 -> 21         0.20030
      19 -> 23         0.67180
 
 Excited State   7:      Singlet-A"     7.6590 eV  161.88 nm  f=0.0129  <S**2>=0.000
      20 -> 24         0.70412
 
 Excited State   8:      Singlet-A"     7.7465 eV  160.05 nm  f=0.0037  <S**2>=0.000
      18 -> 22         0.70442
 
 Excited State   9:      Singlet-A'     7.9259 eV  156.43 nm  f=0.0117  <S**2>=0.000
      18 -> 21         0.13789
      20 -> 25         0.68982
 
 Excited State  10:      Singlet-A'     8.2247 eV  150.75 nm  f=0.0430  <S**2>=0.000
      17 -> 21        -0.38353
      18 -> 21         0.50770
      18 -> 24         0.14069
      19 -> 23        -0.14592
      19 -> 25         0.15151
      20 -> 25        -0.10680
 
 Excited State  11:      Singlet-A"     8.3946 eV  147.69 nm  f=0.0025  <S**2>=0.000
      19 -> 24         0.70421
 
 Excited State  12:      Singlet-A"     8.5373 eV  145.23 nm  f=0.0010  <S**2>=0.000
      18 -> 23         0.70452
 
 Excited State  13:      Singlet-A'     8.6292 eV  143.68 nm  f=0.0244  <S**2>=0.000
      17 -> 21         0.34663
      19 -> 25         0.60181
 
 Excited State  14:      Singlet-A"     8.7351 eV  141.94 nm  f=0.0010  <S**2>=0.000
      16 -> 21         0.69877
 
 Excited State  15:      Singlet-A'     8.8396 eV  140.26 nm  f=0.1536  <S**2>=0.000
      14 -> 21         0.17954
      17 -> 21         0.44064
      18 -> 21         0.30232
      18 -> 24         0.16217
      19 -> 23        -0.12331
      19 -> 25        -0.33081
 
 Excited State  16:      Singlet-A"     9.1731 eV  135.16 nm  f=0.0089  <S**2>=0.000
      17 -> 22         0.69814
      20 -> 26         0.10174
 
 Excited State  17:      Singlet-A"     9.2403 eV  134.18 nm  f=0.0032  <S**2>=0.000
      17 -> 22        -0.10199
      20 -> 26         0.69103
 
 Excited State  18:      Singlet-A"     9.5302 eV  130.10 nm  f=0.0002  <S**2>=0.000
      13 -> 21         0.14442
      15 -> 21         0.67741
 
 Excited State  19:      Singlet-A'     9.7111 eV  127.67 nm  f=0.0192  <S**2>=0.000
      16 -> 22         0.58059
      18 -> 24        -0.36559
      20 -> 27         0.10186
 
 Excited State  20:      Singlet-A'     9.7349 eV  127.36 nm  f=0.0320  <S**2>=0.000
      14 -> 21        -0.14565
      16 -> 22         0.36153
      18 -> 21        -0.14778
      18 -> 24         0.55253
 
 Excited State  21:      Singlet-A"     9.8334 eV  126.08 nm  f=0.0022  <S**2>=0.000
      18 -> 25         0.70111
 
 Excited State  22:      Singlet-A"     9.8692 eV  125.63 nm  f=0.0005  <S**2>=0.000
      19 -> 26         0.69479
 
 Excited State  23:      Singlet-A"    10.0849 eV  122.94 nm  f=0.0000  <S**2>=0.000
      17 -> 23         0.70237
 
 Excited State  24:      Singlet-A'    10.2444 eV  121.03 nm  f=0.0315  <S**2>=0.000
      15 -> 22         0.63968
      20 -> 27        -0.28214
 SavETr:  write IOETrn=   770 NScale= 10 NData=  16 NLR=1 NState=   24 LETran=     442.
 Leave Link  914 at Fri Sep 11 13:51:39 2015, MaxMem=    33554432 cpu:       115.0
 (Enter /usr/local/research/Gaussian09/g09-revD.01/g09/l601.exe)
 Copying SCF densities to generalized density rwf, IOpCl= 0 IROHF=0.

 **********************************************************************

            Population analysis using the SCF density.

 **********************************************************************

 Orbital symmetries:
       Occupied  (A') (A') (A') (A') (A') (A') (A') (A') (A') (A')
                 (A') (A") (A') (A") (A') (A') (A") (A") (A') (A')
       Virtual   (A") (A') (A') (A") (A') (A") (A') (A') (A') (A')
                 (A") (A') (A') (A") (A') (A') (A') (A') (A') (A")
                 (A') (A") (A') (A') (A") (A') (A") (A') (A') (A')
                 (A") (A') (A") (A') (A') (A') (A") (A") (A") (A')
                 (A") (A') (A') (A") (A') (A") (A') (A") (A') (A')
                 (A') (A") (A') (A') (A") (A') (A') (A') (A") (A')
                 (A") (A') (A') (A") (A') (A") (A") (A') (A") (A')
                 (A') (A") (A') (A') (A')
 The electronic state is 1-A'.
 Alpha  occ. eigenvalues --  -18.80823 -18.74583 -13.98695 -10.01503  -9.94719
 Alpha  occ. eigenvalues --   -0.99886  -0.92138  -0.80821  -0.63463  -0.55624
 Alpha  occ. eigenvalues --   -0.47365  -0.46066  -0.40968  -0.39299  -0.37060
 Alpha  occ. eigenvalues --   -0.34608  -0.33190  -0.27825  -0.23459  -0.20631
 Alpha virt. eigenvalues --   -0.03172   0.00292   0.03472   0.07313   0.08187
 Alpha virt. eigenvalues --    0.12648   0.16338   0.18636   0.25731   0.30760
 Alpha virt. eigenvalues --    0.39836   0.40490   0.42768   0.47069   0.48743
 Alpha virt. eigenvalues --    0.49497   0.56057   0.57598   0.58936   0.59258
 Alpha virt. eigenvalues --    0.61824   0.62463   0.72153   0.77179   0.80507
 Alpha virt. eigenvalues --    0.83837   0.89984   0.91395   0.94895   1.00742
 Alpha virt. eigenvalues --    1.01974   1.14084   1.16597   1.16977   1.25374
 Alpha virt. eigenvalues --    1.29821   1.32514   1.33960   1.51152   1.51446
 Alpha virt. eigenvalues --    1.53021   1.55916   1.62894   1.68372   1.69510
 Alpha virt. eigenvalues --    1.74755   1.77895   1.79402   1.81350   1.91131
 Alpha virt. eigenvalues --    1.94521   1.97091   2.04838   2.09318   2.15375
 Alpha virt. eigenvalues --    2.19674   2.30617   2.37643   2.53472   2.55255
 Alpha virt. eigenvalues --    2.59288   2.61730   2.70845   2.74430   2.78384
 Alpha virt. eigenvalues --    2.85012   2.90011   2.95779   3.08375   3.11715
 Alpha virt. eigenvalues --    3.22658   3.28884   3.30226   3.53649   3.67375
          Condensed to atoms (all electrons):
               1          2          3          4          5          6
     1  N    6.113551   0.396625   0.369995   0.369995  -0.032366  -0.016548
     2  C    0.396625   5.169608  -0.063343  -0.063343   0.164594   0.327098
     3  H    0.369995  -0.063343   0.608182  -0.032282   0.002281   0.011326
     4  H    0.369995  -0.063343  -0.032282   0.608182   0.002281  -0.008635
     5  C   -0.032366   0.164594   0.002281   0.002281   4.821228  -0.021198
     6  H   -0.016548   0.327098   0.011326  -0.008635  -0.021198   0.667124
     7  H   -0.016548   0.327098  -0.008635   0.011326  -0.021198  -0.019079
     8  O   -0.002609  -0.121851   0.008531   0.008531   0.738010   0.001239
     9  O    0.003047  -0.116200   0.000514   0.000514   0.325915   0.007683
    10  H    0.000398   0.005465  -0.000023  -0.000023  -0.025299   0.002921
               7          8          9         10
     1  N   -0.016548  -0.002609   0.003047   0.000398
     2  C    0.327098  -0.121851  -0.116200   0.005465
     3  H   -0.008635   0.008531   0.000514  -0.000023
     4  H    0.011326   0.008531   0.000514  -0.000023
     5  C   -0.021198   0.738010   0.325915  -0.025299
     6  H   -0.019079   0.001239   0.007683   0.002921
     7  H    0.667124   0.001239   0.007683   0.002921
     8  O    0.001239   7.611672  -0.075748   0.004788
     9  O    0.007683  -0.075748   7.678740   0.303774
    10  H    0.002921   0.004788   0.303774   0.532859
 Mulliken charges:
               1
     1  N   -0.185540
     2  C   -0.025752
     3  H    0.103453
     4  H    0.103453
     5  C    0.045754
     6  H    0.048069
     7  H    0.048069
     8  O   -0.173801
     9  O   -0.135922
    10  H    0.172217
 Sum of Mulliken charges =   0.00000
 Mulliken charges with hydrogens summed into heavy atoms:
               1
     1  N    0.021367
     2  C    0.070386
     5  C    0.045754
     8  O   -0.173801
     9  O    0.036295
 Electronic spatial extent (au):  <R**2>=            422.8421
 Charge=              0.0000 electrons
 Dipole moment (field-independent basis, Debye):
    X=             -2.5863    Y=             -1.0319    Z=              0.0000  Tot=              2.7845
 Quadrupole moment (field-independent basis, Debye-Ang):
   XX=            -25.8700   YY=            -37.5199   ZZ=            -27.2554
   XY=             -3.9128   XZ=              0.0000   YZ=              0.0000
 Traceless Quadrupole moment (field-independent basis, Debye-Ang):
   XX=              4.3451   YY=             -7.3048   ZZ=              2.9597
   XY=             -3.9128   XZ=              0.0000   YZ=              0.0000
 Octapole moment (field-independent basis, Debye-Ang**2):
  XXX=            -10.2027  YYY=             14.9566  ZZZ=              0.0000  XYY=              2.0746
  XXY=             -0.0940  XXZ=              0.0000  XZZ=              1.4910  YZZ=             -0.8137
  YYZ=              0.0000  XYZ=              0.0000
 Hexadecapole moment (field-independent basis, Debye-Ang**3):
 XXXX=           -127.5118 YYYY=           -376.1442 ZZZZ=            -34.4854 XXXY=              2.2753
 XXXZ=              0.0000 YYYX=             18.7252 YYYZ=              0.0000 ZZZX=              0.0000
 ZZZY=              0.0000 XXYY=            -69.6717 XXZZ=            -27.5912 YYZZ=            -54.4266
 XXYZ=              0.0000 YYXZ=              0.0000 ZZXY=              4.9525
 N-N= 1.781643108544D+02 E-N=-1.021801675349D+03  KE= 2.815586725824D+02
 Symmetry A'   KE= 2.685646573538D+02
 Symmetry A"   KE= 1.299401522856D+01
 Leave Link  601 at Fri Sep 11 13:51:39 2015, MaxMem=    33554432 cpu:         0.1
 (Enter /usr/local/research/Gaussian09/g09-revD.01/g09/l9999.exe)
 1\1\GINC-HEISENBERG\SP\RPBEPBE TD-FC\def2SVP\C2H5N1O2\LEIN\11-Sep-2015
 \0\\#p td=(nstates=24) pbepbe def2svp geom=allcheck guess=read\\-- Gly
 cine conformers --\\0,1\N,0,0.0299822408,-1.9461518782,0.\C,0,-0.81446
 99618,-0.7730954961,0.\H,0,0.6619137931,-1.8939512063,0.810446456\H,0,
 0.6619137931,-1.8939512063,-0.810446456\C,0,-0.0709743095,0.5751568323
 ,0.\H,0,-1.4920659892,-0.7915539276,-0.8853459855\H,0,-1.4920659892,-0
 .7915539276,0.8853459855\O,0,1.1350790598,0.6745579793,0.\O,0,-0.86100
 18462,1.6844341591,0.\H,0,-1.8007155218,1.4122430125,0.\\Version=EM64L
 -G09RevD.01\State=1-A'\HF=-283.8955391\RMSD=6.171e-09\PG=CS [SG(C2H1N1
 O2),X(H4)]\\@


 KEEP CLOSE TO NATURES HEART, YOURSELF;
 AND BREAK CLEAR AWAY, ONCE IN A WHILE, AND
 CLIMB A MOUNTAIN OR SPEND A WEEK IN THE
 WOODS.  WASH YOUR SPIRIT CLEAN...
                                         -- JOHN MUIR
 Job cpu time:       0 days  0 hours  2 minutes  1.2 seconds.
 File lengths (MBytes):  RWF=     46 Int=      0 D2E=      0 Chk=      9 Scr=      1
 Normal termination of Gaussian 09 at Fri Sep 11 13:51:40 2015.
